# Probe 0 (0.2505 1e-06 0)
# Probe 1 (0.2375 1e-06 0)
# Probe 2 (0.2302 1e-06 0)
# Probe 3 (0.2295 1e-06 0)
# Probe 4 (0.2285 1e-06 0)
# Probe 5 (0.2275 1e-06 0)
# Probe 6 (0.2265 1e-06 0)
# Probe 7 (0.2255 1e-06 0)
# Probe 8 (0.2248 1e-06 0)
#       Probe             0             1             2             3             4             5             6             7             8
#        Time
  6.40053e-05  -1.44948e+06        986388   1.46195e+06   1.45549e+06    1.4462e+06   1.43713e+06   1.42775e+06        999575        533616
  6.40105e-05    -1.461e+06        986240   1.46184e+06   1.45539e+06   1.44609e+06   1.43703e+06   1.42763e+06   1.00333e+06        533602
  6.40157e-05  -1.47251e+06        986089   1.46173e+06   1.45529e+06   1.44598e+06   1.43693e+06   1.42751e+06   1.00709e+06        533588
  6.40209e-05  -1.48403e+06        985935   1.46162e+06   1.45519e+06   1.44587e+06   1.43683e+06    1.4274e+06   1.01083e+06        533573
  6.40261e-05  -1.49555e+06        985778   1.46151e+06   1.45508e+06   1.44576e+06   1.43673e+06   1.42728e+06   1.01457e+06        533559
  6.40313e-05  -1.50707e+06        985618    1.4614e+06   1.45498e+06   1.44565e+06   1.43663e+06   1.42716e+06    1.0183e+06        533545
  6.40364e-05  -1.51858e+06        985454   1.46129e+06   1.45488e+06   1.44554e+06   1.43653e+06   1.42704e+06   1.02202e+06        533530
  6.40417e-05  -1.53013e+06        985287   1.46118e+06   1.45478e+06   1.44543e+06   1.43643e+06   1.42692e+06   1.02574e+06        533516
  6.40469e-05  -1.54167e+06        985117   1.46107e+06   1.45468e+06   1.44532e+06   1.43633e+06    1.4268e+06   1.02945e+06        533502
  6.40521e-05   -1.5532e+06        984943   1.46096e+06   1.45458e+06   1.44521e+06   1.43622e+06   1.42669e+06   1.03314e+06        533487
  6.40573e-05  -1.56473e+06        984766   1.46085e+06   1.45447e+06    1.4451e+06   1.43612e+06   1.42657e+06   1.03683e+06        533473
  6.40625e-05  -1.57626e+06        984585   1.46074e+06   1.45437e+06   1.44499e+06   1.43602e+06   1.42645e+06   1.04051e+06        533459
  6.40677e-05  -1.58781e+06        984401   1.46063e+06   1.45427e+06   1.44488e+06   1.43592e+06   1.42633e+06   1.04418e+06        533444
  6.40729e-05  -1.59936e+06        984213   1.46052e+06   1.45417e+06   1.44477e+06   1.43582e+06   1.42621e+06   1.04783e+06        533430
  6.40782e-05   -1.6109e+06        984022   1.46041e+06   1.45406e+06   1.44466e+06   1.43572e+06   1.42609e+06   1.05147e+06        533415
  6.40834e-05  -1.62243e+06        983828    1.4603e+06   1.45396e+06   1.44455e+06   1.43562e+06   1.42598e+06   1.05509e+06        533401
  6.40886e-05  -1.63395e+06        983630   1.46019e+06   1.45386e+06   1.44444e+06   1.43552e+06   1.42586e+06   1.05869e+06        533386
  6.40938e-05  -1.64547e+06        983429   1.46008e+06   1.45376e+06   1.44433e+06   1.43541e+06   1.42574e+06   1.06225e+06        533371
  6.40991e-05    -1.657e+06        983223   1.45997e+06   1.45365e+06   1.44422e+06   1.43531e+06   1.42562e+06   1.06578e+06        533357
  6.41043e-05  -1.66853e+06        983014   1.45986e+06   1.45355e+06   1.44411e+06   1.43521e+06    1.4255e+06   1.06927e+06        533342
  6.41095e-05  -1.68004e+06        982802   1.45975e+06   1.45345e+06     1.444e+06   1.43511e+06   1.42539e+06   1.07273e+06        533328
  6.41148e-05  -1.69155e+06        982586   1.45964e+06   1.45334e+06   1.44389e+06   1.43501e+06   1.42527e+06   1.07615e+06        533313
    6.412e-05  -1.70304e+06        982367   1.45953e+06   1.45324e+06   1.44378e+06   1.43491e+06   1.42515e+06   1.07954e+06        533298
  6.41253e-05  -1.71454e+06        982143   1.45942e+06   1.45314e+06   1.44367e+06    1.4348e+06   1.42503e+06    1.0829e+06        533284
  6.41305e-05  -1.72604e+06        981917   1.45931e+06   1.45303e+06   1.44356e+06    1.4347e+06   1.42491e+06   1.08623e+06        533269
  6.41358e-05  -1.73752e+06        981686    1.4592e+06   1.45293e+06   1.44345e+06    1.4346e+06    1.4248e+06   1.08952e+06        533254
   6.4141e-05  -1.74898e+06        981452   1.45909e+06   1.45283e+06   1.44334e+06    1.4345e+06   1.42468e+06   1.09278e+06        533240
  6.41463e-05  -1.76043e+06        981215   1.45898e+06   1.45272e+06   1.44323e+06   1.43439e+06   1.42456e+06     1.096e+06        533225
  6.41515e-05  -1.77186e+06        980974   1.45887e+06   1.45262e+06   1.44312e+06   1.43429e+06   1.42444e+06    1.0992e+06        533211
  6.41568e-05  -1.78327e+06        980729   1.45875e+06   1.45252e+06   1.44301e+06   1.43419e+06   1.42432e+06   1.10236e+06        533196
   6.4162e-05  -1.79466e+06        980481   1.45864e+06   1.45241e+06    1.4429e+06   1.43409e+06   1.42421e+06   1.10549e+06        533181
  6.41673e-05  -1.80604e+06        980230   1.45853e+06   1.45231e+06   1.44279e+06   1.43398e+06   1.42409e+06    1.1086e+06        533167
  6.41725e-05  -1.81739e+06        979975   1.45842e+06    1.4522e+06   1.44268e+06   1.43388e+06   1.42397e+06   1.11167e+06        533152
  6.41778e-05  -1.82873e+06        979716   1.45831e+06    1.4521e+06   1.44257e+06   1.43378e+06   1.42386e+06   1.11471e+06        533138
   6.4183e-05  -1.84004e+06        979455    1.4582e+06     1.452e+06   1.44246e+06   1.43368e+06   1.42374e+06   1.11772e+06        533123
  6.41883e-05  -1.85136e+06        979189   1.45809e+06   1.45189e+06   1.44235e+06   1.43357e+06   1.42362e+06   1.12071e+06        533109
  6.41935e-05  -1.86263e+06        978920   1.45798e+06   1.45179e+06   1.44224e+06   1.43347e+06   1.42351e+06   1.12367e+06        533094
  6.41988e-05  -1.87387e+06        978648   1.45787e+06   1.45168e+06   1.44213e+06   1.43337e+06   1.42339e+06   1.12659e+06        533079
   6.4204e-05  -1.88508e+06        978373   1.45776e+06   1.45158e+06   1.44202e+06   1.43327e+06   1.42327e+06   1.12949e+06        533065
  6.42093e-05  -1.89628e+06        978094   1.45764e+06   1.45148e+06   1.44191e+06   1.43316e+06   1.42316e+06   1.13237e+06        533050
  6.42145e-05  -1.90744e+06        977812   1.45753e+06   1.45137e+06    1.4418e+06   1.43306e+06   1.42304e+06   1.13521e+06        533036
  6.42198e-05  -1.91858e+06        977527   1.45742e+06   1.45127e+06   1.44169e+06   1.43296e+06   1.42292e+06   1.13803e+06        533021
   6.4225e-05  -1.92969e+06        977238   1.45731e+06   1.45116e+06   1.44158e+06   1.43286e+06   1.42281e+06   1.14083e+06        533007
  6.42303e-05  -1.94077e+06        976946    1.4572e+06   1.45106e+06   1.44147e+06   1.43275e+06   1.42269e+06   1.14359e+06        532992
  6.42355e-05  -1.95182e+06        976651   1.45709e+06   1.45096e+06   1.44137e+06   1.43265e+06   1.42257e+06   1.14634e+06        532978
  6.42408e-05  -1.96284e+06        976353   1.45698e+06   1.45085e+06   1.44126e+06   1.43255e+06   1.42246e+06   1.14906e+06        532963
  6.42461e-05  -1.97383e+06        976052   1.45687e+06   1.45075e+06   1.44115e+06   1.43244e+06   1.42234e+06   1.15175e+06        532949
  6.42513e-05  -1.98478e+06        975748   1.45676e+06   1.45064e+06   1.44104e+06   1.43234e+06   1.42222e+06   1.15442e+06        532934
  6.42566e-05  -1.99571e+06        975440   1.45665e+06   1.45054e+06   1.44093e+06   1.43224e+06   1.42211e+06   1.15707e+06        532920
  6.42618e-05  -2.00659e+06        975130   1.45653e+06   1.45043e+06   1.44082e+06   1.43214e+06   1.42199e+06   1.15969e+06        532905
   6.4267e-05  -2.01742e+06        974817   1.45642e+06   1.45033e+06   1.44071e+06   1.43203e+06   1.42188e+06   1.16231e+06        532891
  6.42723e-05   -2.0282e+06        974502   1.45631e+06   1.45022e+06   1.44061e+06   1.43193e+06   1.42176e+06   1.16493e+06        532877
  6.42775e-05  -2.03895e+06        974184    1.4562e+06   1.45012e+06    1.4405e+06   1.43183e+06   1.42165e+06   1.16754e+06        532862
  6.42827e-05  -2.04967e+06        973863   1.45609e+06   1.45002e+06   1.44039e+06   1.43172e+06   1.42153e+06   1.17015e+06        532848
   6.4288e-05  -2.06034e+06        973539   1.45598e+06   1.44991e+06   1.44028e+06   1.43162e+06   1.42141e+06   1.17276e+06        532833
  6.42932e-05  -2.07098e+06        973212   1.45587e+06   1.44981e+06   1.44017e+06   1.43152e+06    1.4213e+06   1.17536e+06        532819
  6.42985e-05  -2.08157e+06        972883   1.45576e+06    1.4497e+06   1.44006e+06   1.43141e+06   1.42118e+06   1.17795e+06        532804
  6.43037e-05  -2.09213e+06        972551   1.45565e+06    1.4496e+06   1.43996e+06   1.43131e+06   1.42107e+06   1.18055e+06        532790
  6.43089e-05  -2.10261e+06        972218   1.45554e+06   1.44949e+06   1.43985e+06   1.43121e+06   1.42095e+06   1.18313e+06        532776
  6.43141e-05  -2.11305e+06        971882   1.45543e+06   1.44939e+06   1.43974e+06   1.43111e+06   1.42084e+06    1.1857e+06        532761
  6.43193e-05  -2.12345e+06        971544   1.45532e+06   1.44929e+06   1.43963e+06     1.431e+06   1.42072e+06   1.18826e+06        532747
  6.43246e-05   -2.1338e+06        971203   1.45521e+06   1.44918e+06   1.43953e+06    1.4309e+06   1.42061e+06   1.19082e+06        532733
  6.43298e-05  -2.14411e+06        970860    1.4551e+06   1.44908e+06   1.43942e+06    1.4308e+06   1.42049e+06   1.19338e+06        532718
   6.4335e-05  -2.15437e+06        970515   1.45499e+06   1.44897e+06   1.43931e+06   1.43069e+06   1.42038e+06   1.19594e+06        532704
  6.43402e-05  -2.16459e+06        970167   1.45488e+06   1.44887e+06   1.43921e+06   1.43059e+06   1.42026e+06    1.1985e+06        532690
  6.43454e-05  -2.17476e+06        969817   1.45477e+06   1.44877e+06    1.4391e+06   1.43049e+06   1.42015e+06   1.20105e+06        532675
  6.43507e-05  -2.18488e+06        969465   1.45466e+06   1.44866e+06   1.43899e+06   1.43038e+06   1.42003e+06   1.20358e+06        532661
  6.43559e-05  -2.19495e+06        969111   1.45455e+06   1.44856e+06   1.43889e+06   1.43028e+06   1.41992e+06    1.2061e+06        532647
  6.43611e-05  -2.20496e+06        968755   1.45443e+06   1.44845e+06   1.43878e+06   1.43018e+06    1.4198e+06    1.2086e+06        532632
  6.43663e-05  -2.21493e+06        968398   1.45432e+06   1.44835e+06   1.43867e+06   1.43007e+06   1.41969e+06   1.21109e+06        532618
  6.43715e-05  -2.22485e+06        968038   1.45421e+06   1.44824e+06   1.43857e+06   1.42997e+06   1.41957e+06   1.21357e+06        532604
  6.43768e-05  -2.23471e+06        967676    1.4541e+06   1.44814e+06   1.43846e+06   1.42987e+06   1.41946e+06   1.21603e+06        532589
   6.4382e-05  -2.24452e+06        967313   1.45399e+06   1.44803e+06   1.43835e+06   1.42976e+06   1.41935e+06   1.21847e+06        532575
  6.43872e-05  -2.25427e+06        966949   1.45388e+06   1.44793e+06   1.43825e+06   1.42966e+06   1.41923e+06   1.22091e+06        532561
  6.43924e-05  -2.26397e+06        966582   1.45377e+06   1.44783e+06   1.43814e+06   1.42955e+06   1.41912e+06   1.22332e+06        532546
  6.43976e-05  -2.27361e+06        966214   1.45366e+06   1.44772e+06   1.43803e+06   1.42945e+06     1.419e+06   1.22572e+06        532532
  6.44029e-05  -2.28319e+06        965845   1.45355e+06   1.44762e+06   1.43793e+06   1.42935e+06   1.41889e+06   1.22811e+06        532518
  6.44081e-05  -2.29271e+06        965474   1.45344e+06   1.44751e+06   1.43782e+06   1.42924e+06   1.41877e+06   1.23048e+06        532504
  6.44133e-05  -2.30218e+06        965102   1.45333e+06   1.44741e+06   1.43771e+06   1.42914e+06   1.41866e+06   1.23284e+06        532489
  6.44185e-05  -2.31158e+06        964729   1.45322e+06    1.4473e+06   1.43761e+06   1.42903e+06   1.41854e+06   1.23519e+06        532475
  6.44237e-05  -2.32093e+06        964355   1.45311e+06    1.4472e+06    1.4375e+06   1.42893e+06   1.41843e+06   1.23752e+06        532461
   6.4429e-05  -2.33021e+06        963979     1.453e+06   1.44709e+06    1.4374e+06   1.42883e+06   1.41831e+06   1.23983e+06        532447
  6.44342e-05  -2.33943e+06        963603   1.45289e+06   1.44699e+06   1.43729e+06   1.42872e+06    1.4182e+06   1.24213e+06        532432
  6.44394e-05  -2.34858e+06        963225   1.45278e+06   1.44688e+06   1.43718e+06   1.42862e+06   1.41809e+06   1.24442e+06        532418
  6.44446e-05  -2.35768e+06        962847   1.45267e+06   1.44678e+06   1.43708e+06   1.42851e+06   1.41797e+06   1.24669e+06        532404
  6.44498e-05   -2.3667e+06        962468   1.45256e+06   1.44667e+06   1.43697e+06   1.42841e+06   1.41786e+06   1.24894e+06        532390
  6.44551e-05  -2.37566e+06        962088   1.45245e+06   1.44657e+06   1.43687e+06    1.4283e+06   1.41774e+06   1.25118e+06        532376
  6.44603e-05  -2.38456e+06        961708   1.45234e+06   1.44646e+06   1.43676e+06    1.4282e+06   1.41763e+06   1.25341e+06        532362
  6.44655e-05  -2.39338e+06        961327   1.45223e+06   1.44636e+06   1.43666e+06    1.4281e+06   1.41752e+06   1.25562e+06        532348
  6.44707e-05  -2.40217e+06        960945   1.45211e+06   1.44625e+06   1.43655e+06   1.42799e+06    1.4174e+06   1.25783e+06        532335
   6.4476e-05  -2.41089e+06        960562     1.452e+06   1.44615e+06   1.43644e+06   1.42789e+06   1.41729e+06   1.26001e+06        532321
  6.44812e-05  -2.41954e+06        960178   1.45189e+06   1.44604e+06   1.43634e+06   1.42778e+06   1.41717e+06   1.26218e+06        532307
  6.44864e-05  -2.42811e+06        959795   1.45178e+06   1.44594e+06   1.43623e+06   1.42768e+06   1.41706e+06   1.26433e+06        532293
  6.44917e-05  -2.43661e+06        959411   1.45167e+06   1.44583e+06   1.43613e+06   1.42757e+06   1.41694e+06   1.26645e+06        532279
  6.44969e-05  -2.44504e+06        959028   1.45156e+06   1.44573e+06   1.43602e+06   1.42747e+06   1.41683e+06   1.26856e+06        532265
  6.45022e-05  -2.45339e+06        958644   1.45145e+06   1.44562e+06   1.43592e+06   1.42736e+06   1.41671e+06   1.27065e+06        532251
  6.45074e-05  -2.46167e+06        958261   1.45134e+06   1.44552e+06   1.43581e+06   1.42726e+06    1.4166e+06   1.27272e+06        532237
  6.45126e-05  -2.46987e+06        957877   1.45123e+06   1.44541e+06    1.4357e+06   1.42715e+06   1.41649e+06   1.27476e+06        532223
  6.45179e-05    -2.478e+06        957495   1.45112e+06   1.44531e+06    1.4356e+06   1.42704e+06   1.41637e+06   1.27679e+06        532210
  6.45231e-05  -2.48605e+06        957112   1.45101e+06    1.4452e+06   1.43549e+06   1.42694e+06   1.41626e+06    1.2788e+06        532196
  6.45284e-05  -2.49404e+06        956729   1.45089e+06   1.44509e+06   1.43539e+06   1.42683e+06   1.41614e+06    1.2808e+06        532182
  6.45336e-05  -2.50196e+06        956346   1.45078e+06   1.44499e+06   1.43528e+06   1.42673e+06   1.41603e+06   1.28277e+06        532168
  6.45389e-05   -2.5098e+06        955964   1.45067e+06   1.44488e+06   1.43518e+06   1.42662e+06   1.41591e+06   1.28473e+06        532154
  6.45441e-05  -2.51756e+06        955582   1.45056e+06   1.44478e+06   1.43507e+06   1.42652e+06    1.4158e+06   1.28667e+06        532140
  6.45494e-05  -2.52523e+06        955201   1.45045e+06   1.44467e+06   1.43497e+06   1.42641e+06   1.41569e+06   1.28858e+06        532126
  6.45546e-05  -2.53283e+06        954821   1.45034e+06   1.44456e+06   1.43486e+06    1.4263e+06   1.41557e+06   1.29048e+06        532113
  6.45599e-05  -2.54034e+06        954442   1.45023e+06   1.44446e+06   1.43476e+06    1.4262e+06   1.41546e+06   1.29235e+06        532099
  6.45651e-05  -2.54776e+06        954064   1.45012e+06   1.44435e+06   1.43465e+06   1.42609e+06   1.41534e+06    1.2942e+06        532085
  6.45704e-05  -2.55511e+06        953687      1.45e+06   1.44424e+06   1.43455e+06   1.42599e+06   1.41523e+06   1.29604e+06        532071
  6.45757e-05  -2.56236e+06        953312   1.44989e+06   1.44414e+06   1.43444e+06   1.42588e+06   1.41512e+06   1.29782e+06        532058
  6.45809e-05  -2.56954e+06        952937   1.44978e+06   1.44403e+06   1.43434e+06   1.42578e+06     1.415e+06   1.29955e+06        532044
  6.45862e-05  -2.57665e+06        952562   1.44967e+06   1.44392e+06   1.43423e+06   1.42567e+06   1.41489e+06   1.30125e+06        532030
  6.45915e-05  -2.58367e+06        952189   1.44956e+06   1.44382e+06   1.43413e+06   1.42556e+06   1.41478e+06    1.3029e+06        532016
  6.45967e-05  -2.59061e+06        951817   1.44945e+06   1.44371e+06   1.43402e+06   1.42546e+06   1.41466e+06   1.30451e+06        532002
   6.4602e-05  -2.59746e+06        951447   1.44933e+06    1.4436e+06   1.43392e+06   1.42535e+06   1.41455e+06   1.30608e+06        531989
  6.46073e-05  -2.60422e+06        951079   1.44922e+06    1.4435e+06   1.43381e+06   1.42524e+06   1.41443e+06    1.3076e+06        531975
  6.46126e-05   -2.6109e+06        950712   1.44911e+06   1.44339e+06   1.43371e+06   1.42514e+06   1.41432e+06   1.30909e+06        531961
  6.46178e-05  -2.61748e+06        950347     1.449e+06   1.44328e+06    1.4336e+06   1.42503e+06   1.41421e+06   1.31053e+06        531947
  6.46231e-05  -2.62397e+06        949984   1.44889e+06   1.44318e+06    1.4335e+06   1.42492e+06   1.41409e+06   1.31194e+06        531934
  6.46284e-05  -2.63037e+06        949622   1.44878e+06   1.44307e+06   1.43339e+06   1.42481e+06   1.41398e+06    1.3133e+06        531920
  6.46337e-05  -2.63668e+06        949263   1.44866e+06   1.44296e+06   1.43329e+06   1.42471e+06   1.41387e+06   1.31463e+06        531906
  6.46389e-05  -2.64289e+06        948906   1.44855e+06   1.44286e+06   1.43318e+06    1.4246e+06   1.41376e+06   1.31592e+06        531892
  6.46442e-05  -2.64901e+06        948551   1.44844e+06   1.44275e+06   1.43308e+06   1.42449e+06   1.41364e+06   1.31717e+06        531878
  6.46495e-05  -2.65504e+06        948198   1.44833e+06   1.44264e+06   1.43297e+06   1.42439e+06   1.41353e+06   1.31839e+06        531865
  6.46548e-05  -2.66097e+06        947847   1.44822e+06   1.44254e+06   1.43287e+06   1.42428e+06   1.41342e+06   1.31957e+06        531851
    6.466e-05   -2.6668e+06        947499   1.44811e+06   1.44243e+06   1.43277e+06   1.42417e+06   1.41331e+06   1.32072e+06        531837
  6.46653e-05  -2.67254e+06        947153   1.44799e+06   1.44232e+06   1.43266e+06   1.42407e+06   1.41319e+06   1.32183e+06        531823
  6.46706e-05   -2.6782e+06        946808   1.44788e+06   1.44221e+06   1.43256e+06   1.42396e+06   1.41308e+06   1.32292e+06        531809
  6.46759e-05  -2.68377e+06        946466   1.44777e+06   1.44211e+06   1.43245e+06   1.42385e+06   1.41297e+06   1.32397e+06        531795
  6.46812e-05  -2.68923e+06        946126   1.44766e+06     1.442e+06   1.43235e+06   1.42374e+06   1.41286e+06     1.325e+06        531781
  6.46865e-05   -2.6946e+06        945789   1.44754e+06   1.44189e+06   1.43224e+06   1.42364e+06   1.41274e+06   1.32599e+06        531767
  6.46918e-05  -2.69986e+06        945454   1.44743e+06   1.44178e+06   1.43214e+06   1.42353e+06   1.41263e+06   1.32695e+06        531753
  6.46971e-05  -2.70503e+06        945122   1.44732e+06   1.44168e+06   1.43203e+06   1.42342e+06   1.41252e+06   1.32787e+06        531739
  6.47024e-05  -2.71009e+06        944794   1.44721e+06   1.44157e+06   1.43193e+06   1.42331e+06   1.41241e+06   1.32877e+06        531725
  6.47077e-05  -2.71505e+06        944468    1.4471e+06   1.44146e+06   1.43183e+06    1.4232e+06    1.4123e+06   1.32965e+06        531711
   6.4713e-05  -2.71991e+06        944144   1.44698e+06   1.44135e+06   1.43172e+06    1.4231e+06   1.41218e+06   1.33049e+06        531697
  6.47183e-05  -2.72466e+06        943824   1.44687e+06   1.44124e+06   1.43162e+06   1.42299e+06   1.41207e+06    1.3313e+06        531683
  6.47236e-05  -2.72931e+06        943507   1.44676e+06   1.44114e+06   1.43151e+06   1.42288e+06   1.41196e+06   1.33209e+06        531668
  6.47289e-05  -2.73386e+06        943193   1.44665e+06   1.44103e+06   1.43141e+06   1.42277e+06   1.41185e+06   1.33286e+06        531654
  6.47342e-05   -2.7383e+06        942882   1.44654e+06   1.44092e+06   1.43131e+06   1.42266e+06   1.41174e+06    1.3336e+06        531640
  6.47395e-05  -2.74263e+06        942574   1.44642e+06   1.44081e+06    1.4312e+06   1.42256e+06   1.41163e+06   1.33434e+06        531626
  6.47448e-05  -2.74687e+06        942269   1.44631e+06   1.44071e+06    1.4311e+06   1.42245e+06   1.41152e+06   1.33507e+06        531612
  6.47501e-05  -2.75099e+06        941967    1.4462e+06    1.4406e+06     1.431e+06   1.42234e+06   1.41141e+06   1.33579e+06        531598
  6.47554e-05  -2.75501e+06        941669   1.44609e+06   1.44049e+06   1.43089e+06   1.42223e+06    1.4113e+06    1.3365e+06        531584
  6.47607e-05  -2.75892e+06        941374   1.44597e+06   1.44038e+06   1.43079e+06   1.42212e+06   1.41119e+06    1.3372e+06        531570
   6.4766e-05  -2.76272e+06        941082   1.44586e+06   1.44027e+06   1.43068e+06   1.42202e+06   1.41108e+06   1.33789e+06        531556
  6.47712e-05  -2.76642e+06        940794   1.44575e+06   1.44017e+06   1.43058e+06   1.42191e+06   1.41097e+06   1.33857e+06        531542
  6.47765e-05  -2.77001e+06        940508   1.44564e+06   1.44006e+06   1.43048e+06    1.4218e+06   1.41086e+06   1.33924e+06        531528
  6.47818e-05  -2.77349e+06        940227   1.44553e+06   1.43995e+06   1.43037e+06   1.42169e+06   1.41075e+06    1.3399e+06        531514
  6.47871e-05  -2.77686e+06        939948   1.44541e+06   1.43984e+06   1.43027e+06   1.42158e+06   1.41064e+06   1.34055e+06        531500
  6.47924e-05  -2.78011e+06        939675    1.4453e+06   1.43974e+06   1.43017e+06   1.42147e+06   1.41053e+06   1.34119e+06        531486
  6.47977e-05  -2.78325e+06        939404   1.44519e+06   1.43963e+06   1.43007e+06   1.42137e+06   1.41042e+06   1.34181e+06        531472
   6.4803e-05  -2.78628e+06        939138   1.44508e+06   1.43952e+06   1.42996e+06   1.42126e+06   1.41031e+06   1.34243e+06        531458
  6.48082e-05  -2.78919e+06        938875   1.44497e+06   1.43941e+06   1.42986e+06   1.42115e+06    1.4102e+06   1.34304e+06        531444
  6.48135e-05  -2.79198e+06        938617   1.44486e+06   1.43931e+06   1.42976e+06   1.42104e+06    1.4101e+06   1.34364e+06        531430
  6.48187e-05  -2.79467e+06        938361   1.44475e+06    1.4392e+06   1.42966e+06   1.42094e+06   1.40999e+06   1.34422e+06        531416
   6.4824e-05  -2.79725e+06        938109   1.44463e+06   1.43909e+06   1.42956e+06   1.42083e+06   1.40988e+06    1.3448e+06        531403
  6.48292e-05  -2.79971e+06        937862   1.44452e+06   1.43899e+06   1.42945e+06   1.42072e+06   1.40977e+06   1.34537e+06        531389
  6.48344e-05  -2.80206e+06        937618   1.44441e+06   1.43888e+06   1.42935e+06   1.42061e+06   1.40967e+06   1.34593e+06        531375
  6.48396e-05  -2.80429e+06        937378    1.4443e+06   1.43877e+06   1.42925e+06   1.42051e+06   1.40956e+06   1.34647e+06        531362
  6.48449e-05  -2.80642e+06        937141   1.44419e+06   1.43867e+06   1.42915e+06    1.4204e+06   1.40945e+06   1.34701e+06        531348
  6.48501e-05  -2.80843e+06        936907   1.44408e+06   1.43856e+06   1.42905e+06   1.42029e+06   1.40935e+06   1.34754e+06        531335
  6.48553e-05  -2.81033e+06        936677   1.44397e+06   1.43845e+06   1.42895e+06   1.42019e+06   1.40924e+06   1.34807e+06        531321
  6.48605e-05  -2.81212e+06        936451   1.44386e+06   1.43835e+06   1.42885e+06   1.42008e+06   1.40914e+06   1.34858e+06        531308
  6.48658e-05   -2.8138e+06        936227   1.44375e+06   1.43824e+06   1.42875e+06   1.41997e+06   1.40903e+06   1.34908e+06        531295
   6.4871e-05  -2.81536e+06        936008   1.44364e+06   1.43813e+06   1.42865e+06   1.41986e+06   1.40892e+06   1.34958e+06        531281
  6.48762e-05  -2.81682e+06        935791   1.44353e+06   1.43803e+06   1.42855e+06   1.41976e+06   1.40882e+06   1.35007e+06        531268
  6.48815e-05  -2.81815e+06        935578   1.44342e+06   1.43792e+06   1.42844e+06   1.41965e+06   1.40871e+06   1.35054e+06        531255
  6.48867e-05  -2.81938e+06        935369   1.44331e+06   1.43781e+06   1.42834e+06   1.41954e+06   1.40861e+06   1.35101e+06        531242
  6.48919e-05  -2.82049e+06        935163    1.4432e+06   1.43771e+06   1.42824e+06   1.41944e+06    1.4085e+06   1.35147e+06        531229
  6.48971e-05  -2.82148e+06        934960   1.44309e+06    1.4376e+06   1.42814e+06   1.41933e+06    1.4084e+06   1.35193e+06        531216
  6.49024e-05  -2.82236e+06        934760   1.44297e+06    1.4375e+06   1.42804e+06   1.41922e+06   1.40829e+06   1.35237e+06        531203
  6.49076e-05  -2.82312e+06        934564   1.44286e+06   1.43739e+06   1.42794e+06   1.41911e+06   1.40819e+06   1.35281e+06        531190
  6.49128e-05  -2.82377e+06        934372   1.44275e+06   1.43728e+06   1.42784e+06   1.41901e+06   1.40808e+06   1.35324e+06        531177
   6.4918e-05   -2.8243e+06        934182   1.44264e+06   1.43718e+06   1.42774e+06    1.4189e+06   1.40798e+06   1.35366e+06        531165
  6.49233e-05  -2.82471e+06        933996   1.44253e+06   1.43707e+06   1.42764e+06   1.41879e+06   1.40787e+06   1.35407e+06        531152
  6.49285e-05    -2.825e+06        933813   1.44242e+06   1.43696e+06   1.42754e+06   1.41869e+06   1.40777e+06   1.35448e+06        531140
  6.49337e-05  -2.82518e+06        933633   1.44231e+06   1.43686e+06   1.42744e+06   1.41858e+06   1.40766e+06   1.35488e+06        531128
   6.4939e-05  -2.82524e+06        933456    1.4422e+06   1.43675e+06   1.42734e+06   1.41847e+06   1.40756e+06   1.35528e+06        531115
  6.49442e-05  -2.82518e+06        933282   1.44209e+06   1.43664e+06   1.42724e+06   1.41836e+06   1.40745e+06   1.35566e+06        531103
  6.49494e-05  -2.82501e+06        933112   1.44198e+06   1.43654e+06   1.42714e+06   1.41826e+06   1.40735e+06   1.35604e+06        531091
  6.49546e-05  -2.82471e+06        932944   1.44187e+06   1.43643e+06   1.42704e+06   1.41815e+06   1.40725e+06   1.35642e+06        531080
  6.49599e-05   -2.8243e+06        932780   1.44176e+06   1.43632e+06   1.42694e+06   1.41804e+06   1.40714e+06   1.35679e+06        531068
  6.49651e-05  -2.82377e+06        932619   1.44165e+06   1.43622e+06   1.42684e+06   1.41793e+06   1.40704e+06   1.35715e+06        531057
  6.49703e-05  -2.82312e+06        932460   1.44154e+06   1.43611e+06   1.42674e+06   1.41783e+06   1.40694e+06   1.35751e+06        531047
  6.49755e-05  -2.82235e+06        932304   1.44143e+06     1.436e+06   1.42664e+06   1.41772e+06   1.40683e+06   1.35786e+06        531037
  6.49808e-05  -2.82146e+06        932152   1.44132e+06    1.4359e+06   1.42654e+06   1.41761e+06   1.40673e+06   1.35821e+06        531027
   6.4986e-05  -2.82045e+06        932002   1.44121e+06   1.43579e+06   1.42644e+06    1.4175e+06   1.40663e+06   1.35855e+06        531017
  6.49912e-05  -2.81932e+06        931854    1.4411e+06   1.43568e+06   1.42634e+06    1.4174e+06   1.40652e+06   1.35889e+06        531008
  6.49964e-05  -2.81807e+06        931710   1.44098e+06   1.43558e+06   1.42625e+06   1.41729e+06   1.40642e+06   1.35923e+06        531000
  6.50017e-05  -2.81669e+06        931567   1.44087e+06   1.43547e+06   1.42615e+06   1.41718e+06   1.40632e+06   1.35956e+06        530992
   6.5007e-05  -2.81519e+06        931427   1.44076e+06   1.43536e+06   1.42605e+06   1.41707e+06   1.40621e+06   1.35988e+06        530984
  6.50122e-05  -2.81357e+06        931290   1.44065e+06   1.43525e+06   1.42595e+06   1.41697e+06   1.40611e+06   1.36021e+06        530977
  6.50175e-05  -2.81182e+06        931155   1.44054e+06   1.43515e+06   1.42585e+06   1.41686e+06   1.40601e+06   1.36052e+06        530971
  6.50227e-05  -2.80996e+06        931023   1.44043e+06   1.43504e+06   1.42575e+06   1.41675e+06   1.40591e+06   1.36084e+06        530965
   6.5028e-05  -2.80797e+06        930893   1.44032e+06   1.43493e+06   1.42565e+06   1.41664e+06    1.4058e+06   1.36115e+06        530960
  6.50332e-05  -2.80586e+06        930765   1.44021e+06   1.43482e+06   1.42555e+06   1.41653e+06    1.4057e+06   1.36145e+06        530955
  6.50385e-05  -2.80362e+06        930640    1.4401e+06   1.43472e+06   1.42545e+06   1.41643e+06    1.4056e+06   1.36175e+06        530951
  6.50437e-05  -2.80127e+06        930517   1.43999e+06   1.43461e+06   1.42535e+06   1.41632e+06    1.4055e+06   1.36205e+06        530947
   6.5049e-05  -2.79879e+06        930396   1.43987e+06    1.4345e+06   1.42525e+06   1.41621e+06   1.40539e+06   1.36235e+06        530944
  6.50542e-05  -2.79619e+06        930277   1.43976e+06    1.4344e+06   1.42515e+06    1.4161e+06   1.40529e+06   1.36264e+06        530942
  6.50595e-05  -2.79345e+06        930159   1.43965e+06   1.43429e+06   1.42505e+06   1.41599e+06   1.40519e+06   1.36292e+06        530940
  6.50648e-05  -2.79058e+06        930044   1.43954e+06   1.43418e+06   1.42495e+06   1.41589e+06   1.40509e+06   1.36321e+06        530939
  6.50701e-05  -2.78759e+06        929930   1.43943e+06   1.43407e+06   1.42485e+06   1.41578e+06   1.40498e+06   1.36349e+06        530939
  6.50754e-05  -2.78448e+06        929819   1.43932e+06   1.43396e+06   1.42475e+06   1.41567e+06   1.40488e+06   1.36377e+06        530938
  6.50807e-05  -2.78124e+06        929709    1.4392e+06   1.43386e+06   1.42465e+06   1.41556e+06   1.40478e+06   1.36404e+06        530938
  6.50859e-05  -2.77788e+06        929601   1.43909e+06   1.43375e+06   1.42455e+06   1.41545e+06   1.40468e+06   1.36431e+06        530938
  6.50912e-05  -2.77439e+06        929494   1.43898e+06   1.43364e+06   1.42445e+06   1.41534e+06   1.40458e+06   1.36458e+06        530938
  6.50965e-05  -2.77078e+06        929389   1.43887e+06   1.43353e+06   1.42436e+06   1.41524e+06   1.40447e+06   1.36484e+06        530939
  6.51018e-05  -2.76705e+06        929286   1.43876e+06   1.43342e+06   1.42426e+06   1.41513e+06   1.40437e+06    1.3651e+06        530939
  6.51071e-05  -2.76319e+06        929184   1.43865e+06   1.43332e+06   1.42416e+06   1.41502e+06   1.40427e+06   1.36536e+06        530940