# Probe 0 (0.102 1e-06 0)
# Probe 1 (0.089 1e-06 0)
# Probe 2 (0.0817 1e-06 0)
# Probe 3 (0.081 1e-06 0)
# Probe 4 (0.08 1e-06 0)
# Probe 5 (0.079 1e-06 0)
# Probe 6 (0.078 1e-06 0)
# Probe 7 (0.077 1e-06 0)
# Probe 8 (0.0763 1e-06 0)
#       Probe             0             1             2             3             4             5             6             7             8
#        Time
  8.00157e-05        101000        101000        101000        101000        101000        101000        101000        101441        141521
  8.00314e-05        101000        101000        101000        101000        101000        101000        101000        101489        144301
  8.00472e-05        101000        101000        101000        101000        101000        101000        101000        101541        147232
  8.00629e-05        101000        101000        101000        101000        101000        101000        101000        101598        150311
  8.00786e-05        101000        101000        101000        101000        101000        101000        101000        101660        153533
  8.00943e-05        101000        101000        101000        101000        101000        101000        101000        101726        156872
  8.01101e-05        101000        101000        101000        101000        101000        101000        101000        101798        160410
  8.01258e-05        101000        101000        101000        101000        101000        101000        101000        101876        164170
  8.01415e-05        101000        101000        101000        101000        101000        101000        101000        101960        168224
  8.01572e-05        101000        101000        101000        101000        101000        101000        101000        102052        172604
   8.0173e-05        101000        101000        101000        101000        101000        101000        101000        102151        177305
  8.01887e-05        101000        101000        101000        101000        101000        101000        101001        102258        182315
  8.02044e-05        101000        101000        101000        101000        101000        101000        101001        102374        187625
  8.02201e-05        101000        101000        101000        101000        101000        101000        101001        102500        193223
  8.02358e-05        101000        101000        101000        101000        101000        101000        101001        102636        199097
  8.02516e-05        101000        101000        101000        101000        101000        101000        101001        102783        205237
  8.02673e-05        101000        101000        101000        101000        101000        101000        101001        102942        211627
   8.0283e-05        101000        101000        101000        101000        101000        101000        101001        103113        218255
  8.02987e-05        101000        101000        101000        101000        101000        101000        101001        103298        225105
  8.03145e-05        101000        101000        101000        101000        101000        101000        101001        103499        232153
  8.03302e-05        101000        101000        101000        101000        101000        101000        101001        103715        239385
  8.03459e-05        101000        101000        101000        101000        101000        101000        101002        103949        246785
  8.03616e-05        101000        101000        101000        101000        101000        101000        101002        104202        254345
  8.03774e-05        101000        101000        101000        101000        101000        101000        101002        104475        262055
  8.03931e-05        101000        101000        101000        101000        101000        101000        101002        104772        269902
  8.04088e-05        101000        101000        101000        101000        101000        101000        101002        105092        277875
  8.04245e-05        101000        101000        101000        101000        101000        101000        101003        105438        285961
  8.04403e-05        101000        101000        101000        101000        101000        101000        101003        105813        294151
   8.0456e-05        101000        101000        101000        101000        101000        101000        101003        106218        302433
  8.04717e-05        101000        101000        101000        101000        101000        101000        101004        106656        310795
  8.04874e-05        101000        101000        101000        101000        101000        101000        101004        107131        319229
  8.05032e-05        101000        101000        101000        101000        101000        101000        101004        107646        327740
  8.05189e-05        101000        101000        101000        101000        101000        101000        101005        108202        336337
  8.05347e-05        101000        101000        101000        101000        101000        101000        101005        108803        344965
  8.05504e-05        101000        101000        101000        101000        101000        101000        101006        109452        353582
  8.05662e-05        101000        101000        101000        101000        101000        101000        101006        110153        362123
  8.05819e-05        101000        101000        101000        101000        101000        101000        101007        110914        370514
  8.05977e-05        101000        101000        101000        101000        101000        101000        101008        111738        378745
  8.06134e-05        101000        101000        101000        101000        101000        101000        101008        112618        386826
  8.06292e-05        101000        101000        101000        101000        101000        101000        101009        113556        394756
  8.06449e-05        101000        101000        101000        101000        101000        101000        101010        114557        402532
  8.06607e-05        101000        101000        101000        101000        101000        101000        101011        115624        410151
  8.06764e-05        101000        101000        101000        101000        101000        101000        101012        116762        417612
  8.06922e-05        101000        101000        101000        101000        101000        101000        101013        117977        424913
  8.07079e-05        101000        101000        101000        101000        101000        101000        101015        119273        432057
  8.07237e-05        101000        101000        101000        101000        101000        101000        101016        120655        439042
  8.07394e-05        101000        101000        101000        101000        101000        101000        101017        122151        445858
  8.07552e-05        101000        101000        101000        101000        101000        101000        101019        123768        452502
  8.07709e-05        101000        101000        101000        101000        101000        101000        101021        125510        458977
  8.07867e-05        101000        101000        101000        101000        101000        101000        101023        127383        465284
  8.08024e-05        101000        101000        101000        101000        101000        101000        101025        129388        471430
  8.08182e-05        101000        101000        101000        101000        101000        101000        101027        131530        477415
  8.08339e-05        101000        101000        101000        101000        101000        101000        101030        133812        483241
  8.08497e-05        101000        101000        101000        101000        101000        101000        101032        136237        488909
  8.08654e-05        101000        101000        101000        101000        101000        101000        101035        138807        494419
  8.08812e-05        101000        101000        101000        101000        101000        101000        101038        141525        499773
  8.08969e-05        101000        101000        101000        101000        101000        101000        101042        144394        504971
  8.09127e-05        101000        101000        101000        101000        101000        101000        101046        147414        510015
  8.09284e-05        101000        101000        101000        101000        101000        101000        101050        150587        514906
  8.09442e-05        101000        101000        101000        101000        101000        101000        101055        153888        519645
  8.09599e-05        101000        101000        101000        101000        101000        101000        101060        157353        524226
  8.09756e-05        101000        101000        101000        101000        101000        101000        101066        161033        528652
  8.09914e-05        101000        101000        101000        101000        101000        101000        101072        164969        532932
  8.10072e-05        101000        101000        101000        101000        101000        101000        101078        169242        537062
   8.1023e-05        101000        101000        101000        101000        101000        101000        101086        173849        541049
  8.10388e-05        101000        101000        101000        101000        101000        101000        101094        178779        544895
  8.10545e-05        101000        101000        101000        101000        101000        101000        101102        184022        548605
  8.10703e-05        101000        101000        101000        101000        101000        101000        101112        189566        552181
  8.10861e-05        101000        101000        101000        101000        101000        101000        101122        195398        555628
  8.11019e-05        101000        101000        101000        101000        101000        101000        101134        201506        558949
  8.11176e-05        101000        101000        101000        101000        101000        101000        101146        207877        562147
  8.11334e-05        101000        101000        101000        101000        101000        101000        101160        214494        565226
  8.11492e-05        101000        101000        101000        101000        101000        101000        101175        221344        568187
   8.1165e-05        101000        101000        101000        101000        101000        101000        101191        228403        571035
  8.11807e-05        101000        101000        101000        101000        101000        101000        101209        235653        573773
  8.11965e-05        101000        101000        101000        101000        101000        101000        101229        243079        576404
  8.12123e-05        101000        101000        101000        101000        101000        101000        101251        250668        578934
  8.12281e-05        101000        101000        101000        101000        101000        101000        101275        258411        581363
  8.12439e-05        101000        101000        101000        101000        101000        101000        101302        266297        583696
  8.12596e-05        101000        101000        101000        101000        101000        101000        101332        274313        585937
  8.12754e-05        101000        101000        101000        101000        101000        101000        101365        282446        588087
  8.12912e-05        101000        101000        101000        101000        101000        101000        101403        290685        590151
   8.1307e-05        101000        101000        101000        101000        101000        101000        101444        299019        592131
  8.13227e-05        101000        101000        101000        101000        101000        101000        101491        307437        594030
  8.13385e-05        101000        101000        101000        101000        101000        101000        101541        315928        595851
  8.13543e-05        101000        101000        101000        101000        101000        101000        101595        324482        597597
  8.13701e-05        101000        101000        101000        101000        101000        101000        101654        333107        599271
  8.13858e-05        101000        101000        101000        101000        101000        101000        101718        341790        600875
  8.14016e-05        101000        101000        101000        101000        101000        101000        101788        350470        602411
  8.14174e-05        101000        101000        101000        101000        101000        101001        101864        359118        603883
  8.14332e-05        101000        101000        101000        101000        101000        101001        101946        367619        605292
   8.1449e-05        101000        101000        101000        101000        101000        101001        102035        375957        606641
  8.14647e-05        101000        101000        101000        101000        101000        101001        102133        384136        607932
  8.14805e-05        101000        101000        101000        101000        101000        101001        102238        392160        609167
  8.14963e-05        101000        101000        101000        101000        101000        101001        102352        400025        610349
  8.15121e-05        101000        101000        101000        101000        101000        101001        102476        407730        611478
  8.15278e-05        101000        101000        101000        101000        101000        101001        102611        415273        612557
  8.15436e-05        101000        101000        101000        101000        101000        101001        102757        422652        613588
  8.15594e-05        101000        101000        101000        101000        101000        101001        102915        429869        614573
  8.15752e-05        101000        101000        101000        101000        101000        101001        103086        436923        615514
  8.15909e-05        101000        101000        101000        101000        101000        101001        103271        443806        616411
  8.16067e-05        101000        101000        101000        101000        101000        101002        103472        450514        617267
  8.16225e-05        101000        101000        101000        101000        101000        101002        103689        457048        618083
  8.16383e-05        101000        101000        101000        101000        101000        101002        103925        463410        618860
  8.16541e-05        101000        101000        101000        101000        101000        101002        104180        469606        619601
  8.16698e-05        101000        101000        101000        101000        101000        101002        104457        475638        620306
  8.16856e-05        101000        101000        101000        101000        101000        101002        104758        481508        620977
  8.17014e-05        101000        101000        101000        101000        101000        101003        105084        487217        621616
  8.17172e-05        101000        101000        101000        101000        101000        101003        105437        492766        622223
  8.17329e-05        101000        101000        101000        101000        101000        101003        105819        498155        622800
  8.17487e-05        101000        101000        101000        101000        101000        101003        106234        503397        623350
  8.17646e-05        101000        101000        101000        101000        101000        101004        106684        508481        623874
  8.17804e-05        101000        101000        101000        101000        101000        101004        107172        513410        624371
  8.17962e-05        101000        101000        101000        101000        101000        101005        107700        518183        624843
   8.1812e-05        101000        101000        101000        101000        101000        101005        108272        522801        625291
  8.18278e-05        101000        101000        101000        101000        101000        101005        108890        527258        625716
  8.18436e-05        101000        101000        101000        101000        101000        101006        109559        531560        626119
  8.18594e-05        101000        101000        101000        101000        101000        101006        110285        535709        626501
  8.18752e-05        101000        101000        101000        101000        101000        101007        111072        539712        626860
   8.1891e-05        101000        101000        101000        101000        101000        101008        111919        543572        627199
  8.19068e-05        101000        101000        101000        101000        101000        101008        112822        547294        627518
  8.19226e-05        101000        101000        101000        101000        101000        101009        113787        550881        627818
  8.19384e-05        101000        101000        101000        101000        101000        101010        114816        554336        628100
  8.19542e-05        101000        101000        101000        101000        101000        101011        115915        557664        628365
    8.197e-05        101000        101000        101000        101000        101000        101012        117088        560868        628614
  8.19858e-05        101000        101000        101000        101000        101000        101013        118341        563951        628847
  8.20017e-05        101000        101000        101000        101000        101000        101015        119679        566915        629065
  8.20175e-05        101000        101000        101000        101000        101000        101016        121126        569765        629268
  8.20333e-05        101000        101000        101000        101000        101000        101017        122693        572504        629458
  8.20491e-05        101000        101000        101000        101000        101000        101019        124384        575135        629634
  8.20649e-05        101000        101000        101000        101000        101000        101021        126206        577663        629797
  8.20807e-05        101000        101000        101000        101000        101000        101023        128161        580091        629948
  8.20965e-05        101000        101000        101000        101000        101000        101025        130252        582421        630087
  8.21123e-05        101000        101000        101000        101000        101000        101027        132483        584658        630213
  8.21281e-05        101000        101000        101000        101000        101000        101030        134857        586804        630327
  8.21439e-05        101000        101000        101000        101000        101000        101032        137378        588864        630429
  8.21597e-05        101000        101000        101000        101000        101000        101036        140047        590839        630520
  8.21755e-05        101000        101000        101000        101000        101000        101039        142867        592733        630601
  8.21913e-05        101000        101000        101000        101000        101000        101042        145839        594549        630673
  8.22071e-05        101000        101000        101000        101000        101000        101046        148965        596289        630736
   8.2223e-05        101000        101000        101000        101000        101000        101051        152239        597957        630791
  8.22388e-05        101000        101000        101000        101000        101000        101056        155647        599554        630838
  8.22546e-05        101000        101000        101000        101000        101000        101061        159263        601084        630878
  8.22704e-05        101000        101000        101000        101000        101000        101067        163112        602549        630910
  8.22862e-05        101000        101000        101000        101000        101000        101073        167270        603951        630939
   8.2302e-05        101000        101000        101000        101000        101000        101080        171766        605292        630963
  8.23178e-05        101000        101000        101000        101000        101000        101087        176592        606575        630983
  8.23336e-05        101000        101000        101000        101000        101000        101095        181736        607802        631000
  8.23494e-05        101000        101000        101000        101000        101000        101104        187187        608974        631012
  8.23652e-05        101000        101000        101000        101000        101000        101114        192933        610095        631020
   8.2381e-05        101000        101000        101000        101000        101000        101125        198960        611166        631025
  8.23968e-05        101000        101000        101000        101000        101000        101137        205256        612189        631025
  8.24126e-05        101000        101000        101000        101000        101000        101150        211804        613165        631023
  8.24284e-05        101000        101000        101000        101000        101000        101164        218590        614097        631019
  8.24443e-05        101000        101000        101000        101000        101000        101180        225592        614986        631012
  8.24601e-05        101000        101000        101000        101000        101000        101197        232789        615833        631004
  8.24759e-05        101000        101000        101000        101000        101000        101216        240167        616643        630995
  8.24917e-05        101000        101000        101000        101000        101000        101236        247712        617415        630985
  8.25075e-05        101000        101000        101000        101000        101000        101259        255430        618153        630973
  8.25234e-05        101000        101000        101000        101000        101000        101285        263294        618856        630960
  8.25392e-05        101000        101000        101000        101000        101000        101313        271291        619525        630946
   8.2555e-05        101000        101000        101000        101000        101000        101345        279410        620162        630929
  8.25709e-05        101000        101000        101000        101000        101000        101380        287637        620767        630910
  8.25867e-05        101000        101000        101000        101000        101000        101420        295962        621343        630889
  8.26026e-05        101000        101000        101000        101000        101000        101464        304373        621890        630865
  8.26184e-05        101000        101000        101000        101000        101000        101513        312859        622409        630839
  8.26342e-05        101000        101000        101000        101000        101000        101566        321409        622901        630809
  8.26501e-05        101000        101000        101000        101000        101000        101623        330018        623368        630776
  8.26659e-05        101000        101000        101000        101000        101000        101685        338701        623811        630740
  8.26818e-05        101000        101000        101000        101000        101000        101753        347389        624230        630701
  8.26976e-05        101000        101000        101000        101000        101000        101826        356048        624625        630656
  8.27134e-05        101000        101000        101000        101000        101001        101906        364596        624998        630606
  8.27293e-05        101000        101000        101000        101000        101001        101993        372981        625350        630551
  8.27451e-05        101000        101000        101000        101000        101001        102088        381203        625681        630491
   8.2761e-05        101000        101000        101000        101000        101001        102190        389268        625993        630426
  8.27768e-05        101000        101000        101000        101000        101001        102302        397172        626286        630355
  8.27926e-05        101000        101000        101000        101000        101001        102423        404915        626562        630280
  8.28085e-05        101000        101000        101000        101000        101001        102554        412493        626821        630199
  8.28243e-05        101000        101000        101000        101000        101001        102697        419905        627063        630113
  8.28402e-05        101000        101000        101000        101000        101001        102851        427153        627290        630020
   8.2856e-05        101000        101000        101000        101000        101001        103018        434237        627500        629921
  8.28718e-05        101000        101000        101000        101000        101001        103199        441148        627697        629816
  8.28877e-05        101000        101000        101000        101000        101001        103396        447882        627876        629705
  8.29035e-05        101000        101000        101000        101000        101002        103609        454440        628040        629588
  8.29194e-05        101000        101000        101000        101000        101002        103840        460823        628189        629465
  8.29352e-05        101000        101000        101000        101000        101002        104091        467037        628325        629335
   8.2951e-05        101000        101000        101000        101000        101002        104363        473086        628448        629200
  8.29669e-05        101000        101000        101000        101000        101002        104658        478971        628559        629058
  8.29827e-05        101000        101000        101000        101000        101003        104978        484694        628660        628911
  8.29986e-05        101000        101000        101000        101000        101003        105325        490254        628751        628757
  8.30144e-05        101000        101000        101000        101000        101003        105701        495654        628831        628598
  8.30302e-05        101000        101000        101000        101000        101003        106108        500895        628903        628428
  8.30461e-05        101000        101000        101000        101000        101004        106549        505978        628967        628250
  8.30619e-05        101000        101000        101000        101000        101004        107028        510905        629022        628063
  8.30778e-05        101000        101000        101000        101000        101004        107547        515676        629070        627867
  8.30936e-05        101000        101000        101000        101000        101005        108109        520292        629111        627664
  8.31094e-05        101000        101000        101000        101000        101005        108717        524747        629148        627454
  8.31253e-05        101000        101000        101000        101000        101006        109375        529046        629181        627237
  8.31411e-05        101000        101000        101000        101000        101006        110088        533191        629210        627013
   8.3157e-05        101000        101000        101000        101000        101007        110862        537188        629235        626784
  8.31728e-05        101000        101000        101000        101000        101007        111697        541042        629256        626549
  8.31886e-05        101000        101000        101000        101000        101008        112587        544757        629272        626309
  8.32045e-05        101000        101000        101000        101000        101009        113537        548335        629285        626065
  8.32203e-05        101000        101000        101000        101000        101010        114552        551782        629293        625816
  8.32362e-05        101000        101000        101000        101000        101011        115635        555101        629297        625563
   8.3252e-05        101000        101000        101000        101000        101012        116792        558295        629297        625306
  8.32679e-05        101000        101000        101000        101000        101013        118027        561368        629295        625046
  8.32837e-05        101000        101000        101000        101000        101014        119346        564322        629291        624782
  8.32995e-05        101000        101000        101000        101000        101015        120771        567161        629285        624516
  8.33154e-05        101000        101000        101000        101000        101017        122319        569895        629278        624247
  8.33313e-05        101000        101000        101000        101000        101018        123992        572521        629270        623976