# Probe 0 (0.2505 1e-06 0)
# Probe 1 (0.2375 1e-06 0)
# Probe 2 (0.2302 1e-06 0)
# Probe 3 (0.2295 1e-06 0)
# Probe 4 (0.2285 1e-06 0)
# Probe 5 (0.2275 1e-06 0)
# Probe 6 (0.2265 1e-06 0)
# Probe 7 (0.2255 1e-06 0)
# Probe 8 (0.2248 1e-06 0)
#       Probe             0             1             2             3             4             5             6             7             8
#        Time
  4.20062e-05        101000        101000        607117        604432        601801        599070        596486        595299        599283
  4.20103e-05        101000        101000        607103        604417        601789        599058        596473        595286        599270
  4.20145e-05        101000        101000        607089        604402        601776        599046        596460        595273        599258
  4.20187e-05        101000        101000        607076        604387        601764        599034        596447        595260        599246
  4.20232e-05        101000        101000        607061        604371        601751        599021        596433        595247        599233
  4.20276e-05        101000        101000        607047        604355        601738        599008        596419        595233        599220
  4.20322e-05        101000        101000        607032        604339        601724        598995        596405        595219        599206
  4.20368e-05        101000        101000        607017        604322        601711        598981        596391        595204        599193
  4.20416e-05        101000        101000        607001        604305        601697        598967        596376        595189        599179
  4.20463e-05        101000        101000        606985        604288        601683        598953        596361        595174        599165
  4.20512e-05        101000        101000        606968        604271        601669        598939        596346        595159        599151
  4.20562e-05        101000        101000        606951        604253        601654        598924        596330        595143        599136
  4.20611e-05        101000        101000        606934        604235        601640        598910        596315        595128        599122
  4.20661e-05        101000        101000        606916        604218        601626        598896        596299        595112        599107
   4.2071e-05        101000        101000        606899        604200        601612        598881        596284        595096        599093
  4.20761e-05        101000        101000        606880        604182        601598        598867        596268        595080        599078
   4.2081e-05        101000        101000        606862        604164        601584        598852        596253        595065        599063
   4.2086e-05        101000        101000        606844        604147        601570        598838        596237        595049        599049
  4.20909e-05        101000        101000        606826        604129        601556        598823        596222        595033        599034
   4.2096e-05        101000        101000        606807        604111        601542        598809        596206        595017        599019
   4.2101e-05        101000        101000        606788        604093        601528        598794        596190        595001        599005
  4.21061e-05        101000        101000        606768        604075        601513        598779        596174        594985        598990
  4.21111e-05        101000        101000        606749        604057        601499        598764        596159        594969        598975
  4.21162e-05        101000        101000        606729        604039        601485        598749        596143        594953        598960
  4.21213e-05        101000        101000        606709        604021        601471        598735        596127        594936        598945
  4.21265e-05        101000        101000        606688        604002        601456        598719        596110        594920        598929
  4.21315e-05        101000        101000        606668        603984        601442        598705        596095        594904        598915
  4.21365e-05        101000        101000        606648        603966        601428        598690        596079        594888        598900
  4.21415e-05        101000        101000        606627        603949        601414        598676        596063        594872        598885
  4.21466e-05        101000        101000        606606        603930        601400        598661        596047        594856        598870
  4.21517e-05        101000        101000        606585        603913        601386        598646        596032        594840        598855
  4.21568e-05        101000        101000        606564        603894        601372        598631        596016        594823        598840
  4.21618e-05        101000        101000        606542        603876        601358        598616        596000        594807        598825
   4.2167e-05        101000        101000        606520        603858        601344        598601        595984        594791        598810
   4.2172e-05        101000        101000        606498        603841        601330        598586        595968        594775        598795
  4.21772e-05        101000        101000        606476        603823        601316        598571        595952        594758        598779
  4.21822e-05        101000        101000        606454        603805        601302        598557        595936        594742        598765
  4.21873e-05        101000        101000        606431        603788        601288        598542        595920        594726        598749
  4.21925e-05        101000        101000        606408        603770        601274        598527        595904        594709        598734
  4.21976e-05        101000        101000        606385        603752        601259        598511        595887        594693        598719
  4.22028e-05        101000        101000        606362        603734        601245        598496        595871        594676        598703
  4.22081e-05        101000        101000        606338        603716        601231        598481        595855        594659        598688
  4.22133e-05        101000        101000        606314        603698        601216        598466        595838        594642        598672
  4.22185e-05        101000        101000        606291        603680        601202        598450        595822        594626        598657
  4.22237e-05        101000        101000        606268        603662        601188        598435        595806        594609        598641
  4.22288e-05        101000        101000        606245        603644        601174        598420        595790        594593        598626
  4.22339e-05        101000        101000        606221        603626        601160        598405        595774        594576        598611
   4.2239e-05        101000        101000        606199        603608        601147        598390        595758        594560        598596
  4.22442e-05        101000        101000        606176        603591        601133        598375        595741        594543        598580
  4.22493e-05        101000        101000        606152        603573        601119        598360        595725        594527        598565
  4.22546e-05        101000        101000        606129        603554        601105        598345        595709        594510        598549
  4.22598e-05        101000        101000        606106        603537        601091        598329        595692        594493        598534
  4.22651e-05        101000        101000        606082        603518        601077        598314        595676        594476        598518
  4.22702e-05        101000        101000        606059        603500        601063        598299        595660        594460        598502
  4.22754e-05        101000        101000        606036        603482        601049        598283        595643        594443        598487
  4.22807e-05        101000        101000        606013        603464        601035        598268        595627        594426        598471
  4.22861e-05        101000        101000        605989        603446        601021        598252        595610        594408        598455
  4.22914e-05        101000        101000        605966        603427        601007        598237        595593        594391        598439
  4.22968e-05        101000        101000        605942        603409        600992        598221        595576        594374        598423
  4.23021e-05        101000        101000        605919        603390        600978        598205        595559        594357        598407
  4.23077e-05        101000        101000        605894        603371        600963        598189        595541        594339        598390
  4.23133e-05        101000        101000        605870        603352        600949        598172        595524        594320        598373
  4.23189e-05        101000        101000        605846        603333        600934        598156        595506        594302        598356
  4.23245e-05        101000        101000        605822        603313        600919        598139        595488        594284        598339
  4.23301e-05        101000        101000        605799        603294        600905        598123        595471        594266        598322
  4.23358e-05        101000        101000        605775        603274        600890        598106        595453        594247        598305
  4.23413e-05        101000        101000        605751        603255        600876        598090        595435        594229        598289
   4.2347e-05        101000        101000        605728        603236        600861        598073        595417        594211        598272
  4.23525e-05        101000        101000        605705        603217        600847        598057        595400        594193        598255
  4.23581e-05        101000        101000        605682        603198        600832        598041        595382        594175        598238
  4.23636e-05        101000        101000        605660        603179        600818        598025        595365        594157        598221
  4.23691e-05        101000        101000        605637        603160        600804        598008        595347        594139        598204
  4.23747e-05        101000        101000        605614        603141        600789        597992        595330        594121        598188
  4.23803e-05        101000        101000        605592        603122        600775        597975        595312        594103        598171
   4.2386e-05        101000        101000        605569        603103        600760        597959        595294        594084        598154
  4.23916e-05        101000        101000        605547        603084        600746        597942        595277        594066        598137
  4.23972e-05        101000        101000        605525        603065        600732        597926        595259        594048        598119
  4.24028e-05        101000        101000        605503        603046        600718        597909        595241        594030        598103
  4.24084e-05        101000        101000        605481        603027        600703        597893        595224        594011        598085
   4.2414e-05        101000        101000        605459        603008        600689        597876        595206        593993        598068
  4.24197e-05        101000        101000        605437        602988        600675        597859        595188        593975        598051
  4.24253e-05        101000        101000        605415        602969        600661        597843        595170        593956        598034
  4.24311e-05        101000        101000        605393        602950        600646        597826        595152        593938        598017
  4.24368e-05        101000        101000        605371        602931        600632        597809        595134        593919        597999
  4.24425e-05        101000        101000        605349        602912        600618        597792        595116        593900        597982
  4.24482e-05        101000        101000        605327        602892        600604        597775        595098        593882        597964
  4.24539e-05        101000        101000        605306        602873        600589        597758        595080        593863        597947
  4.24597e-05        101000        101000        605284        602854        600575        597741        595062        593844        597930
  4.24654e-05        101000        101000        605262        602835        600561        597724        595044        593826        597912
  4.24711e-05        101000        101001        605241        602816        600547        597708        595026        593807        597895
  4.24768e-05        101000        101001        605220        602796        600533        597691        595008        593788        597877
  4.24825e-05        101000        101001        605198        602777        600519        597674        594990        593770        597860
  4.24883e-05        101000        101001        605177        602758        600505        597657        594972        593751        597842
  4.24941e-05        101000        101001        605156        602739        600491        597640        594953        593732        597824
  4.24999e-05        101000        101001        605135        602719        600476        597622        594935        593713        597807
  4.25058e-05        101000        101001        605113        602700        600462        597605        594917        593694        597789
  4.25117e-05        101000        101001        605091        602680        600448        597588        594898        593674        597771
  4.25176e-05        101000        101001        605070        602661        600433        597570        594879        593655        597752
  4.25236e-05        101000        101001        605048        602641        600418        597552        594860        593635        597734
  4.25295e-05        101000        101001        605027        602621        600404        597535        594842        593616        597716
  4.25354e-05        101000        101001        605005        602602        600389        597517        594823        593596        597698
  4.25413e-05        101000        101001        604984        602582        600374        597500        594804        593577        597680
  4.25473e-05        101000        101001        604962        602562        600359        597482        594785        593557        597661
  4.25532e-05        101000        101001        604941        602543        600344        597464        594766        593538        597643
  4.25592e-05        101000        101001        604919        602523        600329        597447        594747        593518        597625
  4.25652e-05        101000        101002        604898        602503        600314        597429        594729        593499        597606
  4.25712e-05        101000        101002        604877        602484        600299        597411        594709        593479        597588
  4.25772e-05        101000        101002        604855        602464        600283        597393        594690        593459        597569
  4.25833e-05        101000        101002        604834        602444        600268        597375        594671        593439        597551
  4.25893e-05        101000        101002        604812        602424        600252        597357        594652        593419        597532
  4.25954e-05        101000        101002        604790        602404        600236        597339        594633        593399        597513
  4.26015e-05        101000        101002        604769        602384        600221        597321        594613        593379        597495
  4.26076e-05        101000        101002        604747        602364        600205        597303        594594        593359        597476
  4.26137e-05        101000        101003        604726        602344        600189        597285        594574        593338        597457
  4.26198e-05        101000        101003        604704        602324        600173        597266        594555        593318        597438
  4.26259e-05        101000        101003        604682        602304        600157        597248        594536        593298        597419
  4.26321e-05        101000        101003        604661        602284        600140        597230        594516        593278        597400
  4.26382e-05        101000        101003        604639        602264        600124        597212        594496        593258        597381
  4.26444e-05        101000        101004        604618        602244        600108        597193        594477        593237        597362
  4.26505e-05        101000        101004        604596        602224        600091        597175        594457        593217        597343
  4.26567e-05        101000        101004        604574        602204        600075        597156        594437        593197        597324
  4.26629e-05        101000        101005        604553        602184        600058        597138        594418        593176        597305
  4.26691e-05        101000        101005        604531        602163        600042        597119        594398        593156        597286
  4.26753e-05        101000        101005        604509        602143        600025        597101        594378        593135        597267
  4.26814e-05        101000        101006        604488        602123        600009        597082        594358        593115        597248
  4.26876e-05        101000        101006        604466        602103        599992        597064        594339        593094        597228
  4.26938e-05        101000        101006        604445        602083        599975        597045        594319        593074        597209
     4.27e-05        101000        101007        604423        602063        599958        597027        594299        593053        597190
  4.27063e-05        101000        101007        604401        602043        599942        597008        594279        593033        597171
  4.27125e-05        101000        101008        604379        602022        599925        596989        594259        593012        597151
  4.27187e-05        101000        101008        604358        602002        599908        596970        594239        592991        597132
   4.2725e-05        101000        101009        604336        601982        599890        596952        594219        592971        597112
  4.27313e-05        101000        101009        604314        601962        599873        596933        594198        592950        597093
  4.27376e-05        101000        101010        604292        601941        599856        596914        594178        592929        597073
   4.2744e-05        101000        101011        604270        601921        599838        596895        594157        592907        597053
  4.27504e-05        101000        101012        604248        601900        599821        596875        594137        592886        597034
  4.27567e-05        101000        101012        604226        601880        599803        596856        594116        592865        597014
  4.27631e-05        101000        101013        604204        601860        599786        596837        594096        592844        596994
  4.27694e-05        101000        101014        604182        601840        599768        596818        594075        592823        596974
  4.27757e-05        101000        101015        604160        601820        599751        596799        594055        592802        596955
  4.27821e-05        101000        101016        604138        601799        599733        596780        594034        592781        596935
  4.27884e-05        101000        101017        604116        601779        599716        596761        594014        592760        596915
  4.27946e-05        101000        101018        604094        601759        599698        596742        593993        592739        596895
  4.28009e-05        101000        101020        604073        601740        599680        596723        593973        592718        596876
  4.28072e-05        101000        101021        604051        601720        599663        596704        593953        592698        596856
  4.28134e-05        101000        101022        604030        601700        599645        596685        593932        592677        596837
  4.28197e-05        101000        101024        604008        601681        599628        596666        593912        592656        596817
   4.2826e-05        101000        101026        603986        601661        599610        596647        593891        592635        596797
  4.28322e-05        101000        101027        603965        601641        599593        596628        593871        592614        596778
  4.28385e-05        101000        101029        603943        601622        599575        596609        593850        592594        596758
  4.28448e-05        101000        101031        603922        601602        599557        596590        593830        592573        596738
  4.28511e-05        101000        101033        603900        601583        599539        596571        593809        592552        596718
  4.28575e-05        101000        101035        603878        601563        599521        596552        593788        592530        596698
  4.28638e-05        101000        101038        603856        601543        599504        596532        593767        592509        596678
  4.28702e-05        101000        101040        603834        601524        599485        596513        593746        592488        596658
  4.28766e-05        101000        101043        603812        601504        599467        596494        593725        592467        596638
   4.2883e-05        101000        101046        603790        601484        599449        596474        593704        592445        596618
  4.28893e-05        101000        101049        603769        601465        599431        596455        593684        592424        596598
  4.28956e-05        101000        101052        603747        601446        599413        596436        593663        592403        596578
   4.2902e-05        101000        101056        603725        601426        599395        596416        593642        592382        596558
  4.29083e-05        101000        101060        603703        601407        599377        596397        593621        592361        596538
  4.29146e-05        101000        101064        603682        601388        599359        596378        593600        592340        596518
  4.29209e-05        101000        101068        603660        601369        599341        596359        593579        592319        596498
  4.29272e-05        101000        101072        603638        601350        599323        596339        593558        592297        596478
  4.29336e-05        101000        101077        603617        601331        599305        596320        593537        592276        596457
  4.29399e-05        101000        101082        603595        601311        599287        596300        593516        592255        596437
  4.29463e-05        101000        101087        603573        601292        599269        596281        593495        592234        596417
  4.29527e-05        101000        101093        603551        601273        599250        596261        593474        592212        596396
  4.29591e-05        101000        101099        603530        601254        599232        596242        593453        592191        596376
  4.29655e-05        101000        101106        603508        601235        599213        596222        593431        592169        596356
  4.29719e-05        101000        101113        603486        601216        599195        596203        593410        592148        596335
  4.29783e-05        101000        101120        603464        601196        599176        596183        593389        592126        596315
  4.29846e-05        101000        101128        603443        601177        599158        596163        593368        592105        596295
   4.2991e-05        101000        101136        603421        601158        599139        596144        593346        592084        596274
  4.29975e-05        101000        101145        603399        601139        599120        596124        593325        592062        596254
  4.30038e-05        101000        101154        603378        601120        599102        596105        593304        592041        596233
  4.30103e-05        101000        101164        603356        601101        599083        596085        593282        592019        596213
  4.30167e-05        101000        101175        603334        601082        599064        596065        593261        591997        596192
  4.30231e-05        101000        101186        603313        601063        599045        596045        593239        591976        596171
  4.30295e-05        101000        101198        603291        601044        599026        596026        593218        591954        596151
   4.3036e-05        101000        101211        603269        601025        599007        596006        593196        591932        596130
  4.30424e-05        101000        101224        603248        601006        598989        595986        593175        591911        596109
  4.30489e-05        101000        101238        603226        600987        598969        595966        593153        591889        596089
  4.30553e-05        101000        101254        603204        600968        598950        595946        593132        591867        596068
  4.30618e-05        101000        101270        603183        600949        598931        595926        593110        591845        596047
  4.30683e-05        101000        101287        603161        600930        598912        595906        593088        591824        596026
  4.30748e-05        101000        101305        603139        600912        598893        595886        593067        591802        596006
  4.30812e-05        101000        101324        603118        600893        598874        595866        593045        591780        595985
  4.30877e-05        101000        101345        603096        600874        598855        595846        593023        591758        595964
  4.30942e-05        101000        101366        603074        600855        598835        595826        593002        591736        595943
  4.31006e-05        101000        101389        603053        600836        598816        595806        592980        591714        595922
   4.3107e-05        101000        101413        603032        600817        598797        595787        592958        591693        595902
  4.31134e-05        101000        101438        603010        600799        598778        595767        592937        591671        595881
  4.31198e-05        101000        101465        602989        600780        598759        595747        592916        591649        595861
  4.31262e-05        101000        101494        602968        600762        598740        595727        592894        591628        595840
  4.31327e-05        101000        101524        602947        600743        598720        595707        592872        591606        595820
  4.31391e-05        101000        101555        602925        600724        598701        595687        592851        591584        595799
  4.31455e-05        101000        101589        602904        600706        598682        595667        592829        591562        595778
   4.3152e-05        101000        101625        602883        600687        598663        595647        592808        591540        595757
  4.31585e-05        101000        101663        602861        600668        598643        595627        592786        591519        595737
  4.31649e-05        101000        101703        602840        600649        598624        595607        592764        591497        595716
  4.31714e-05        101000        101745        602818        600630        598604        595587        592742        591475        595695
  4.31779e-05        101000        101790        602797        600611        598585        595567        592720        591453        595674
  4.31843e-05        101000        101836        602775        600593        598565        595547        592699        591431        595653
  4.31907e-05        101000        101886        602754        600574        598546        595527        592677        591409        595633
  4.31971e-05        101000        101938        602732        600555        598527        595507        592656        591387        595612
  4.32036e-05        101000        101993        602711        600536        598507        595487        592634        591365        595592
    4.321e-05        101000        102050        602689        600517        598488        595467        592612        591343        595571
  4.32164e-05        101000        102111        602668        600499        598468        595447        592591        591322        595550
  4.32228e-05        101000        102176        602647        600480        598449        595427        592569        591300        595530
  4.32293e-05        101000        102244        602626        600461        598430        595407        592547        591278        595509