# Probe 0 (0.102 1e-06 0)
# Probe 1 (0.089 1e-06 0)
# Probe 2 (0.079 1e-06 0)
#       Probe             0             1             2
#        Time
  8.00157e-05        101000        101000        101000
  8.00314e-05        101000        101000        101000
  8.00472e-05        101000        101000        101000
  8.00629e-05        101000        101000        101000
  8.00786e-05        101000        101000        101000
  8.00943e-05        101000        101000        101000
  8.01101e-05        101000        101000        101000
  8.01258e-05        101000        101000        101000
  8.01415e-05        101000        101000        101000
  8.01572e-05        101000        101000        101000
   8.0173e-05        101000        101000        101000
  8.01887e-05        101000        101000        101000
  8.02044e-05        101000        101000        101000
  8.02201e-05        101000        101000        101000
  8.02358e-05        101000        101000        101000
  8.02516e-05        101000        101000        101000
  8.02673e-05        101000        101000        101000
   8.0283e-05        101000        101000        101000
  8.02987e-05        101000        101000        101000
  8.03145e-05        101000        101000        101000
  8.03302e-05        101000        101000        101000
  8.03459e-05        101000        101000        101000
  8.03616e-05        101000        101000        101000
  8.03774e-05        101000        101000        101000
  8.03931e-05        101000        101000        101000
  8.04088e-05        101000        101000        101000
  8.04245e-05        101000        101000        101000
  8.04403e-05        101000        101000        101000
   8.0456e-05        101000        101000        101000
  8.04717e-05        101000        101000        101000
  8.04874e-05        101000        101000        101000
  8.05032e-05        101000        101000        101000
  8.05189e-05        101000        101000        101000
  8.05347e-05        101000        101000        101000
  8.05504e-05        101000        101000        101000
  8.05662e-05        101000        101000        101000
  8.05819e-05        101000        101000        101000
  8.05977e-05        101000        101000        101000
  8.06134e-05        101000        101000        101000
  8.06292e-05        101000        101000        101000
  8.06449e-05        101000        101000        101000
  8.06607e-05        101000        101000        101000
  8.06764e-05        101000        101000        101000
  8.06922e-05        101000        101000        101000
  8.07079e-05        101000        101000        101000
  8.07237e-05        101000        101000        101000
  8.07394e-05        101000        101000        101000
  8.07552e-05        101000        101000        101000
  8.07709e-05        101000        101000        101000
  8.07867e-05        101000        101000        101000
  8.08024e-05        101000        101000        101000
  8.08182e-05        101000        101000        101000
  8.08339e-05        101000        101000        101000
  8.08497e-05        101000        101000        101000
  8.08654e-05        101000        101000        101000
  8.08812e-05        101000        101000        101000
  8.08969e-05        101000        101000        101000
  8.09127e-05        101000        101000        101000
  8.09284e-05        101000        101000        101000
  8.09442e-05        101000        101000        101000
  8.09599e-05        101000        101000        101000
  8.09756e-05        101000        101000        101000
  8.09914e-05        101000        101000        101000
  8.10072e-05        101000        101000        101000
   8.1023e-05        101000        101000        101000
  8.10388e-05        101000        101000        101000
  8.10545e-05        101000        101000        101000
  8.10703e-05        101000        101000        101000
  8.10861e-05        101000        101000        101000
  8.11019e-05        101000        101000        101000
  8.11176e-05        101000        101000        101000
  8.11334e-05        101000        101000        101000
  8.11492e-05        101000        101000        101000
   8.1165e-05        101000        101000        101000
  8.11807e-05        101000        101000        101000
  8.11965e-05        101000        101000        101000
  8.12123e-05        101000        101000        101000
  8.12281e-05        101000        101000        101000
  8.12439e-05        101000        101000        101000
  8.12596e-05        101000        101000        101000
  8.12754e-05        101000        101000        101000
  8.12912e-05        101000        101000        101000
   8.1307e-05        101000        101000        101000
  8.13227e-05        101000        101000        101000
  8.13385e-05        101000        101000        101000
  8.13543e-05        101000        101000        101000
  8.13701e-05        101000        101000        101000
  8.13858e-05        101000        101000        101000
  8.14016e-05        101000        101000        101000
  8.14174e-05        101000        101000        101001
  8.14332e-05        101000        101000        101001
   8.1449e-05        101000        101000        101001
  8.14647e-05        101000        101000        101001
  8.14805e-05        101000        101000        101001
  8.14963e-05        101000        101000        101001
  8.15121e-05        101000        101000        101001
  8.15278e-05        101000        101000        101001
  8.15436e-05        101000        101000        101001
  8.15594e-05        101000        101000        101001
  8.15752e-05        101000        101000        101001
  8.15909e-05        101000        101000        101001
  8.16067e-05        101000        101000        101002
  8.16225e-05        101000        101000        101002
  8.16383e-05        101000        101000        101002
  8.16541e-05        101000        101000        101002
  8.16698e-05        101000        101000        101002
  8.16856e-05        101000        101000        101002
  8.17014e-05        101000        101000        101003
  8.17172e-05        101000        101000        101003
  8.17329e-05        101000        101000        101003
  8.17487e-05        101000        101000        101003
  8.17646e-05        101000        101000        101004
  8.17804e-05        101000        101000        101004
  8.17962e-05        101000        101000        101005
   8.1812e-05        101000        101000        101005
  8.18278e-05        101000        101000        101005
  8.18436e-05        101000        101000        101006
  8.18594e-05        101000        101000        101006
  8.18752e-05        101000        101000        101007
   8.1891e-05        101000        101000        101008
  8.19068e-05        101000        101000        101008
  8.19226e-05        101000        101000        101009
  8.19384e-05        101000        101000        101010
  8.19542e-05        101000        101000        101011
    8.197e-05        101000        101000        101012
  8.19858e-05        101000        101000        101013
  8.20017e-05        101000        101000        101015
  8.20175e-05        101000        101000        101016
  8.20333e-05        101000        101000        101017
  8.20491e-05        101000        101000        101019
  8.20649e-05        101000        101000        101021
  8.20807e-05        101000        101000        101023
  8.20965e-05        101000        101000        101025
  8.21123e-05        101000        101000        101027
  8.21281e-05        101000        101000        101030
  8.21439e-05        101000        101000        101032
  8.21597e-05        101000        101000        101036
  8.21755e-05        101000        101000        101039
  8.21913e-05        101000        101000        101042
  8.22071e-05        101000        101000        101046
   8.2223e-05        101000        101000        101051
  8.22388e-05        101000        101000        101056
  8.22546e-05        101000        101000        101061
  8.22704e-05        101000        101000        101067
  8.22862e-05        101000        101000        101073
   8.2302e-05        101000        101000        101080
  8.23178e-05        101000        101000        101087
  8.23336e-05        101000        101000        101095
  8.23494e-05        101000        101000        101104
  8.23652e-05        101000        101000        101114
   8.2381e-05        101000        101000        101125
  8.23968e-05        101000        101000        101137
  8.24126e-05        101000        101000        101150
  8.24284e-05        101000        101000        101164
  8.24443e-05        101000        101000        101180
  8.24601e-05        101000        101000        101197
  8.24759e-05        101000        101000        101216
  8.24917e-05        101000        101000        101236
  8.25075e-05        101000        101000        101259
  8.25234e-05        101000        101000        101285
  8.25392e-05        101000        101000        101313
   8.2555e-05        101000        101000        101345
  8.25709e-05        101000        101000        101380
  8.25867e-05        101000        101000        101420
  8.26026e-05        101000        101000        101464
  8.26184e-05        101000        101000        101513
  8.26342e-05        101000        101000        101566
  8.26501e-05        101000        101000        101623
  8.26659e-05        101000        101000        101685
  8.26818e-05        101000        101000        101753
  8.26976e-05        101000        101000        101826
  8.27134e-05        101000        101000        101906
  8.27293e-05        101000        101000        101993
  8.27451e-05        101000        101000        102088
   8.2761e-05        101000        101000        102190
  8.27768e-05        101000        101000        102302
  8.27926e-05        101000        101000        102423
  8.28085e-05        101000        101000        102554
  8.28243e-05        101000        101000        102697
  8.28402e-05        101000        101000        102851
   8.2856e-05        101000        101000        103018
  8.28718e-05        101000        101000        103199
  8.28877e-05        101000        101000        103396
  8.29035e-05        101000        101000        103609
  8.29194e-05        101000        101000        103840
  8.29352e-05        101000        101000        104091
   8.2951e-05        101000        101000        104363
  8.29669e-05        101000        101000        104658
  8.29827e-05        101000        101000        104978
  8.29986e-05        101000        101000        105325
  8.30144e-05        101000        101000        105701
  8.30302e-05        101000        101000        106108
  8.30461e-05        101000        101000        106549
  8.30619e-05        101000        101000        107028
  8.30778e-05        101000        101000        107547
  8.30936e-05        101000        101000        108109
  8.31094e-05        101000        101000        108717
  8.31253e-05        101000        101000        109375
  8.31411e-05        101000        101000        110088
   8.3157e-05        101000        101000        110862
  8.31728e-05        101000        101000        111697
  8.31886e-05        101000        101000        112587
  8.32045e-05        101000        101000        113537
  8.32203e-05        101000        101000        114552
  8.32362e-05        101000        101000        115635
   8.3252e-05        101000        101000        116792
  8.32679e-05        101000        101000        118027
  8.32837e-05        101000        101000        119346
  8.32995e-05        101000        101000        120771
  8.33154e-05        101000        101000        122319
  8.33313e-05        101000        101000        123992
  8.33472e-05        101000        101000        125794
   8.3363e-05        101000        101000        127730
  8.33789e-05        101000        101000        129802
  8.33948e-05        101000        101000        132014
  8.34107e-05        101000        101000        134369
  8.34266e-05        101000        101000        136870
  8.34424e-05        101000        101000        139520
  8.34583e-05        101000        101000        142321
  8.34742e-05        101000        101000        145275
  8.34901e-05        101000        101000        148383
  8.35059e-05        101000        101000        151646
  8.35218e-05        101000        101000        155035
  8.35377e-05        101000        101000        158635
  8.35536e-05        101000        101000        162465
  8.35695e-05        101000        101000        166590
  8.35853e-05        101000        101000        171055
  8.36012e-05        101000        101000        175850
  8.36171e-05        101000        101000        180966
   8.3633e-05        101000        101000        186391
  8.36488e-05        101000        101000        192112
  8.36647e-05        101000        101000        198116
  8.36806e-05        101000        101000        204390
  8.36965e-05        101000        101000        210918
  8.37124e-05        101000        101000        217686
  8.37282e-05        101000        101000        224669
  8.37441e-05        101000        101000        231851
    8.376e-05        101000        101000        239213
  8.37759e-05        101000        101000        246743
  8.37917e-05        101000        101000        254430
  8.38076e-05        101000        101000        262262
  8.38235e-05        101000        101000        270229
  8.38394e-05        101000        101000        278315
  8.38553e-05        101000        101000        286511
  8.38711e-05        101000        101000        294804
   8.3887e-05        101000        101000        303182
  8.39029e-05        101000        101000        311635
  8.39188e-05        101000        101000        320153
  8.39346e-05        101000        101000        328725
  8.39505e-05        101000        101000        337372
  8.39664e-05        101000        101000        346023
  8.39823e-05        101000        101000        354645
  8.39982e-05        101000        101000        363164
   8.4014e-05        101000        101000        371520
  8.40299e-05        101000        101000        379711
  8.40458e-05        101000        101000        387745
  8.40617e-05        101000        101000        395618
  8.40775e-05        101000        101000        403330
  8.40934e-05        101000        101000        410877
  8.41093e-05        101000        101000        418259
  8.41252e-05        101000        101000        425475
  8.41411e-05        101000        101000        432528
  8.41569e-05        101000        101000        439408
  8.41728e-05        101000        101000        446111
  8.41887e-05        101000        101000        452639
  8.42046e-05        101000        101000        458992
  8.42204e-05        101000        101000        465175
  8.42364e-05        101000        101000        471210
  8.42523e-05        101000        101000        477081
  8.42682e-05        101000        101000        482787
  8.42841e-05        101000        101000        488332
  8.43001e-05        101000        101000        493716
   8.4316e-05        101000        101000        498940
  8.43319e-05        101000        101000        504006
  8.43478e-05        101000        101000        508915
  8.43637e-05        101000        101000        513669
  8.43797e-05        101000        101000        518267
  8.43956e-05        101000        101000        522703
  8.44115e-05        101000        101000        526982
  8.44274e-05        101000        101000        531107
  8.44434e-05        101000        101000        535084
  8.44593e-05        101000        101000        538918
  8.44752e-05        101000        101000        542612
  8.44911e-05        101000        101000        546170
   8.4507e-05        101000        101000        549597
   8.4523e-05        101000        101000        552895
  8.45389e-05        101000        101000        556068
  8.45548e-05        101000        101000        559121
  8.45707e-05        101000        101000        562055
  8.45866e-05        101000        101000        564874
  8.46026e-05        101000        101000        567582
  8.46185e-05        101000        101000        570182
  8.46344e-05        101000        101000        572679
  8.46503e-05        101000        101000        575075
  8.46663e-05        101000        101000        577375
  8.46822e-05        101000        101000        579581
  8.46981e-05        101000        101000        581697
   8.4714e-05        101000        101000        583726
  8.47299e-05        101000        101000        585671
  8.47459e-05        101000        101000        587534
  8.47618e-05        101000        101000        589320
  8.47777e-05        101000        101000        591030
  8.47936e-05        101000        101000        592667
  8.48095e-05        101000        101000        594234
  8.48255e-05        101000        101000        595734
  8.48414e-05        101000        101000        597168
  8.48573e-05        101000        101000        598540
  8.48732e-05        101000        101000        599851
  8.48892e-05        101000        101000        601105
  8.49051e-05        101000        101000        602302
   8.4921e-05        101000        101000        603447
  8.49369e-05        101000        101000        604539
  8.49528e-05        101000        101000        605582
  8.49688e-05        101000        101000        606578
  8.49847e-05        101000        101000        607528
  8.50006e-05        101000        101000        608433
  8.50165e-05        101000        101000        609298
  8.50325e-05        101000        101000        610124
  8.50484e-05        101000        101000        610911
  8.50643e-05        101000        101000        611662
  8.50802e-05        101000        101000        612376
  8.50961e-05        101000        101000        613057
  8.51121e-05        101000        101000        613705
   8.5128e-05        101000        101000        614320
  8.51439e-05        101000        101000        614905
  8.51598e-05        101000        101000        615461
  8.51757e-05        101000        101000        615988
  8.51917e-05        101000        101000        616489
  8.52076e-05        101000        101000        616962
  8.52235e-05        101000        101000        617409
  8.52394e-05        101000        101000        617831
  8.52554e-05        101000        101000        618230
  8.52713e-05        101000        101000        618606
  8.52872e-05        101000        101000        618960
  8.53031e-05        101000        101000        619294
   8.5319e-05        101000        101000        619609
   8.5335e-05        101000        101000        619905
  8.53509e-05        101000        101000        620184
  8.53668e-05        101000        101000        620445
  8.53827e-05        101000        101000        620690
  8.53986e-05        101000        101000        620920
  8.54146e-05        101000        101000        621135
  8.54305e-05        101000        101000        621334
  8.54464e-05        101000        101000        621519
  8.54623e-05        101000        101000        621687
  8.54783e-05        101000        101000        621840
  8.54942e-05        101000        101000        621978
  8.55101e-05        101000        101000        622103
   8.5526e-05        101000        101000        622216
   8.5542e-05        101000        101000        622317
   8.5558e-05        101000        101000        622408
   8.5574e-05        101000        101000        622488
  8.55899e-05        101000        101000        622560
  8.56059e-05        101000        101000        622622
  8.56219e-05        101000        101000        622676
  8.56379e-05        101000        101000        622723
  8.56539e-05        101000        101000        622766
  8.56698e-05        101000        101000        622804
  8.56858e-05        101000        101000        622838
  8.57018e-05        101000        101000        622868
  8.57178e-05        101000        101000        622893
  8.57337e-05        101000        101000        622914
  8.57497e-05        101000        101000        622931
  8.57657e-05        101000        101000        622943
  8.57817e-05        101000        101000        622951
  8.57977e-05        101000        101000        622955
  8.58136e-05        101000        101000        622954
  8.58296e-05        101000        101000        622950
  8.58456e-05        101000        101000        622944
  8.58616e-05        101000        101000        622936
  8.58775e-05        101000        101000        622925
  8.58935e-05        101000        101000        622912
  8.59095e-05        101000        101000        622899
  8.59255e-05        101000        101000        622884
  8.59415e-05        101000        101000        622868
  8.59574e-05        101000        101000        622851
  8.59734e-05        101000        101000        622831
  8.59894e-05        101000        101000        622810
  8.60054e-05        101000        101000        622786
  8.60214e-05        101000        101000        622759
  8.60373e-05        101000        101000        622729
  8.60533e-05        101000        101000        622697
  8.60693e-05        101000        101000        622661
  8.60853e-05        101000        101000        622620
  8.61012e-05        101000        101000        622574
  8.61172e-05        101000        101000        622522
  8.61332e-05        101000        101000        622466
  8.61492e-05        101000        101000        622404
  8.61652e-05        101000        101000        622337
  8.61811e-05        101000        101000        622265
  8.61971e-05        101000        101000        622188
  8.62131e-05        101000        101000        622106
  8.62291e-05        101000        101000        622018
  8.62451e-05        101000        101000        621926
   8.6261e-05        101000        101000        621828
   8.6277e-05        101000        101000        621724
   8.6293e-05        101000        101000        621614
   8.6309e-05        101000        101000        621497
  8.63249e-05        101000        101000        621375
  8.63409e-05        101000        101000        621246
  8.63569e-05        101000        101000        621112
  8.63729e-05        101000        101000        620971
  8.63889e-05        101000        101000        620825
  8.64048e-05        101000        101000        620673
  8.64208e-05        101000        101000        620513
  8.64368e-05        101000        101000        620344
  8.64528e-05        101000        101000        620166
  8.64688e-05        101000        101000        619980
  8.64847e-05        101000        101000        619785
  8.65007e-05        101000        101000        619583
  8.65167e-05        101000        101000        619374
  8.65327e-05        101000        101000        619158
  8.65486e-05        101000        101000        618936
  8.65646e-05        101000        101000        618708
  8.65806e-05        101000        101000        618474
  8.65966e-05        101000        101000        618236
  8.66126e-05        101000        101000        617993
  8.66285e-05        101000        101000        617746
  8.66445e-05        101000        101000        617495
  8.66605e-05        101000        101000        617241
  8.66765e-05        101000        101000        616983
  8.66925e-05        101000        101000        616722
  8.67084e-05        101000        101000        616459
  8.67244e-05        101000        101000        616193
  8.67404e-05        101000        101000        615926
  8.67564e-05        101000        101000        615656
  8.67723e-05        101000        101000        615386
  8.67883e-05        101000        101000        615114
  8.68043e-05        101000        101000        614841
  8.68203e-05        101000        101000        614567
  8.68363e-05        101000        101000        614294
  8.68522e-05        101000        101000        614021
  8.68682e-05        101000        101000        613753
  8.68842e-05        101000        101000        613488
  8.69002e-05        101000        101000        613226
  8.69162e-05        101000        101000        612968
  8.69321e-05        101000        101000        612713
  8.69481e-05        101000        101000        612462
  8.69641e-05        101000        101000        612213
  8.69801e-05        101000        101000        611966
   8.6996e-05        101000        101000        611723
   8.7012e-05        101000        101000        611482
   8.7028e-05        101000        101000        611244
   8.7044e-05        101000        101000        611008
    8.706e-05        101000        101000        610774
  8.70759e-05        101000        101000        610542
  8.70919e-05        101000        101000        610313
  8.71079e-05        101000        101000        610085
  8.71239e-05        101000        101000        609860
  8.71399e-05        101000        101000        609636
  8.71558e-05        101000        101000        609414
  8.71718e-05        101000        101000        609194
  8.71878e-05        101000        101000        608975
  8.72038e-05        101000        101000        608758
  8.72197e-05        101000        101000        608543
  8.72357e-05        101000        101000        608329
  8.72517e-05        101000        101000        608116
  8.72677e-05        101000        101000        607905
  8.72837e-05        101000        101000        607695
  8.72996e-05        101000        101000        607487
  8.73156e-05        101000        101000        607279
  8.73317e-05        101000        101000        607072
  8.73478e-05        101000        101000        606866
  8.73638e-05        101000        101000        606661
  8.73799e-05        101000        101000        606456
   8.7396e-05        101000        101000        606253
  8.74121e-05        101000        101000        606051
  8.74281e-05        101000        101000        605850
  8.74442e-05        101000        101000        605650
  8.74603e-05        101000        101000        605451
  8.74764e-05        101000        101000        605252
  8.74924e-05        101000        101000        605054
  8.75085e-05        101000        101000        604858
  8.75246e-05        101000        101000        604662
  8.75407e-05        101000        101000        604466
  8.75567e-05        101000        101000        604272
  8.75728e-05        101000        101000        604078
  8.75889e-05        101000        101000        603885
  8.76049e-05        101000        101000        603692
   8.7621e-05        101000        101000        603500
  8.76371e-05        101000        101000        603309
  8.76532e-05        101000        101000        603118
  8.76692e-05        101000        101000        602928
  8.76853e-05        101000        101000        602739
  8.77014e-05        101000        101000        602550
  8.77175e-05        101000        101000        602361
  8.77335e-05        101000        101000        602173
  8.77496e-05        101000        101000        601986
  8.77657e-05        101000        101000        601799
  8.77818e-05        101000        101000        601612
  8.77978e-05        101000        101000        601426
  8.78139e-05        101000        101000        601241
    8.783e-05        101000        101000        601056
  8.78461e-05        101000        101000        600871
  8.78621e-05        101000        101000        600686
  8.78782e-05        101000        101000        600502
  8.78943e-05        101000        101000        600319
  8.79104e-05        101000        101000        600136
  8.79264e-05        101000        101000        599953
  8.79425e-05        101000        101000        599770
  8.79586e-05        101000        101000        599588
  8.79747e-05        101000        101000        599406
  8.79907e-05        101000        101000        599224
  8.80068e-05        101000        101000        599043
  8.80229e-05        101000        101000        598862
   8.8039e-05        101000        101000        598682
   8.8055e-05        101000        101000        598501
  8.80711e-05        101000        101000        598321
  8.80872e-05        101000        101000        598141
  8.81032e-05        101000        101000        597962
  8.81193e-05        101000        101000        597783
  8.81354e-05        101000        101000        597604
  8.81515e-05        101000        101000        597425
  8.81675e-05        101000        101000        597246
  8.81836e-05        101000        101000        597068
  8.81997e-05        101000        101000        596890
  8.82158e-05        101000        101000        596712
  8.82318e-05        101000        101000        596535
  8.82479e-05        101000        101000        596357
   8.8264e-05        101000        101000        596180
  8.82801e-05        101000        101000        596003
  8.82961e-05        101000        101000        595827
  8.83122e-05        101000        101000        595650
  8.83283e-05        101000        101000        595474
  8.83444e-05        101000        101000        595298
  8.83604e-05        101000        101000        595122
  8.83765e-05        101000        101000        594946
  8.83926e-05        101000        101000        594770
  8.84087e-05        101000        101000        594595
  8.84247e-05        101000        101000        594420
  8.84408e-05        101000        101000        594245
  8.84569e-05        101000        101000        594070
   8.8473e-05        101000        101000        593895