# Probe 0 (0.2505 1e-06 0)
# Probe 1 (0.2375 1e-06 0)
# Probe 2 (0.2302 1e-06 0)
# Probe 3 (0.2295 1e-06 0)
# Probe 4 (0.2285 1e-06 0)
# Probe 5 (0.2275 1e-06 0)
# Probe 6 (0.2265 1e-06 0)
# Probe 7 (0.2255 1e-06 0)
# Probe 8 (0.2248 1e-06 0)
#       Probe             0             1             2             3             4             5             6             7             8
#        Time
  4.00091e-05        101000        101000        615110        612521        609138        605499        602858        601521        605047
  4.00194e-05        101000        101000        615110        612476        609095        605460        602821        601485        605016
  4.00308e-05        101000        101000        615110        612426        609048        605416        602780        601444        604981
  4.00427e-05        101000        101000        615107        612374        608998        605372        602738        601402        604945
  4.00545e-05        101000        101000        615103        612321        608949        605327        602695        601360        604908
  4.00664e-05        101000        101000        615096        612270        608900        605282        602653        601318        604872
  4.00783e-05        101000        101000        615088        612218        608851        605238        602611        601276        604836
  4.00901e-05        101000        101000        615077        612166        608802        605193        602569        601235        604799
   4.0102e-05        101000        101000        615063        612115        608753        605149        602527        601194        604763
  4.01138e-05        101000        101000        615048        612064        608704        605104        602484        601153        604727
  4.01257e-05        101000        101000        615031        612013        608656        605060        602442        601112        604691
  4.01376e-05        101000        101000        615012        611963        608607        605016        602401        601071        604655
  4.01494e-05        101000        101000        614991        611913        608558        604973        602359        601031        604618
  4.01613e-05        101000        101000        614967        611863        608510        604929        602317        600990        604582
  4.01732e-05        101000        101000        614942        611813        608461        604886        602275        600950        604546
   4.0185e-05        101000        101000        614914        611764        608411        604843        602233        600910        604511
  4.01969e-05        101000        101000        614884        611714        608361        604800        602191        600870        604475
  4.02087e-05        101000        101000        614851        611665        608312        604758        602150        600830        604439
  4.02206e-05        101000        101000        614816        611614        608262        604716        602108        600790        604403
  4.02325e-05        101000        101000        614778        611563        608213        604674        602067        600751        604368
  4.02443e-05        101000        101000        614738        611512        608164        604632        602025        600711        604332
  4.02562e-05        101000        101000        614696        611460        608115        604590        601984        600671        604296
  4.02681e-05        101000        101000        614653        611408        608066        604550        601942        600632        604261
  4.02799e-05        101000        101000        614607        611356        608017        604509        601901        600592        604225
  4.02918e-05        101000        101000        614560        611304        607969        604469        601860        600553        604190
  4.03036e-05        101000        101000        614511        611251        607920        604429        601818        600513        604154
  4.03155e-05        101000        101000        614461        611197        607872        604390        601777        600474        604119
  4.03274e-05        101000        101000        614409        611144        607824        604351        601736        600435        604084
  4.03392e-05        101000        101000        614356        611090        607775        604312        601695        600395        604048
  4.03511e-05        101000        101000        614300        611036        607727        604273        601654        600356        604013
   4.0363e-05        101000        101000        614242        610983        607679        604235        601613        600317        603977
  4.03748e-05        101000        101000        614182        610931        607631        604197        601572        600278        603942
  4.03867e-05        101000        101000        614121        610879        607583        604159        601531        600239        603907
  4.03985e-05        101000        101000        614057        610827        607535        604121        601490        600200        603871
  4.04104e-05        101000        101000        613993        610774        607487        604083        601450        600161        603836
  4.04223e-05        101000        101000        613927        610722        607439        604046        601409        600122        603801
  4.04341e-05        101000        101000        613860        610669        607392        604008        601368        600083        603766
   4.0446e-05        101000        101000        613792        610616        607344        603971        601327        600044        603731
  4.04579e-05        101000        101000        613723        610563        607296        603934        601287        600006        603696
  4.04697e-05        101000        101000        613653        610509        607248        603896        601246        599967        603662
  4.04816e-05        101000        101000        613583        610455        607200        603859        601206        599928        603627
  4.04934e-05        101000        101000        613513        610400        607152        603821        601165        599890        603592
  4.05053e-05        101000        101000        613442        610346        607105        603783        601125        599851        603558
  4.05172e-05        101000        101000        613371        610293        607058        603744        601085        599813        603524
   4.0529e-05        101000        101000        613301        610242        607012        603706        601044        599774        603489
  4.05409e-05        101000        101000        613230        610192        606965        603667        601004        599736        603455
  4.05528e-05        101000        101000        613161        610143        606918        603629        600964        599698        603421
  4.05646e-05        101000        101000        613092        610096        606872        603590        600924        599659        603387
  4.05765e-05        101000        101000        613024        610050        606825        603551        600884        599621        603353
  4.05883e-05        101000        101000        612957        610006        606778        603512        600844        599583        603319
  4.06002e-05        101000        101000        612891        609962        606730        603473        600804        599545        603285
  4.06121e-05        101000        101000        612825        609920        606683        603434        600764        599507        603251
  4.06239e-05        101000        101000        612760        609880        606636        603396        600725        599469        603217
  4.06358e-05        101000        101000        612696        609840        606589        603357        600685        599431        603183
  4.06477e-05        101000        101000        612633        609802        606541        603318        600646        599393        603149
  4.06595e-05        101000        101000        612570        609765        606494        603279        600607        599355        603116
  4.06714e-05        101000        101000        612507        609727        606447        603240        600567        599317        603082
  4.06832e-05        101000        101000        612446        609688        606399        603202        600528        599279        603048
  4.06951e-05        101000        101000        612386        609648        606352        603163        600489        599241        603015
   4.0707e-05        101000        101000        612326        609608        606305        603125        600451        599204        602981
  4.07188e-05        101000        101000        612267        609568        606258        603086        600412        599166        602948
  4.07307e-05        101000        101000        612209        609528        606210        603048        600373        599129        602914
  4.07426e-05        101000        101000        612152        609488        606163        603010        600335        599091        602881
  4.07544e-05        101000        101000        612095        609447        606116        602972        600297        599053        602847
  4.07663e-05        101000        101000        612039        609405        606069        602933        600258        599016        602814
  4.07781e-05        101000        101000        611984        609363        606023        602895        600220        598979        602781
    4.079e-05        101000        101000        611929        609321        605976        602857        600182        598941        602747
  4.08019e-05        101000        101000        611874        609279        605929        602819        600144        598904        602714
  4.08137e-05        101000        101000        611820        609235        605883        602781        600106        598867        602681
  4.08256e-05        101000        101000        611767        609190        605837        602743        600069        598829        602648
  4.08375e-05        101000        101000        611714        609144        605791        602705        600031        598792        602614
  4.08493e-05        101000        101000        611661        609096        605745        602667        599994        598755        602581
  4.08612e-05        101000        101000        611608        609048        605699        602630        599956        598718        602548
   4.0873e-05        101000        101000        611556        608998        605653        602592        599919        598681        602515
  4.08849e-05        101000        101000        611504        608947        605608        602554        599882        598644        602482
  4.08968e-05        101000        101000        611453        608894        605563        602516        599844        598607        602449
  4.09086e-05        101000        101000        611402        608841        605517        602478        599807        598570        602415
  4.09205e-05        101000        101000        611351        608786        605473        602440        599770        598533        602382
  4.09324e-05        101000        101000        611300        608730        605428        602402        599734        598496        602349
  4.09442e-05        101000        101000        611249        608673        605383        602364        599697        598460        602316
  4.09561e-05        101000        101000        611200        608615        605339        602326        599660        598423        602283
   4.0968e-05        101000        101000        611151        608556        605295        602288        599624        598386        602250
  4.09798e-05        101000        101000        611101        608497        605251        602250        599587        598349        602217
  4.09917e-05        101000        101000        611052        608439        605207        602211        599551        598313        602184
  4.10035e-05        101000        101000        611003        608380        605163        602173        599515        598276        602151
  4.10154e-05        101000        101000        610954        608322        605120        602135        599479        598239        602118
  4.10271e-05        101000        101000        610905        608265        605077        602097        599443        598203        602085
  4.10388e-05        101000        101000        610857        608208        605034        602059        599407        598167        602052
  4.10506e-05        101000        101000        610809        608151        604991        602022        599371        598131        602019
  4.10623e-05        101000        101000        610761        608095        604948        601984        599335        598095        601986
   4.1074e-05        101000        101000        610713        608040        604906        601946        599299        598059        601954
  4.10856e-05        101000        101000        610666        607986        604864        601908        599264        598023        601921
  4.10972e-05        101000        101000        610619        607933        604822        601871        599228        597988        601889
  4.11087e-05        101000        101000        610572        607880        604780        601834        599193        597952        601856
  4.11202e-05        101000        101000        610526        607829        604739        601797        599157        597918        601824
  4.11316e-05        101000        101000        610480        607778        604698        601760        599122        597883        601792
   4.1143e-05        101000        101000        610433        607728        604657        601723        599087        597848        601760
  4.11543e-05        101000        101000        610388        607679        604617        601686        599052        597813        601729
  4.11656e-05        101000        101000        610342        607630        604577        601650        599017        597779        601697
  4.11768e-05        101000        101000        610296        607581        604536        601613        598983        597745        601665
  4.11878e-05        101000        101000        610252        607535        604497        601578        598949        597712        601634
  4.11988e-05        101000        101000        610208        607489        604458        601542        598915        597678        601603
  4.12096e-05        101000        101000        610164        607443        604419        601507        598882        597646        601573
  4.12204e-05        101000        101000        610120        607398        604381        601472        598849        597613        601542
  4.12313e-05        101000        101000        610077        607354        604342        601437        598816        597580        601511
  4.12419e-05        101000        101000        610034        607310        604304        601403        598784        597548        601481
  4.12525e-05        101000        101000        609992        607267        604267        601369        598752        597517        601451
  4.12629e-05        101000        101000        609950        607225        604230        601335        598720        597485        601422
  4.12731e-05        101000        101000        609909        607184        604193        601302        598690        597455        601393
  4.12832e-05        101000        101000        609869        607143        604157        601270        598659        597425        601364
  4.12932e-05        101000        101000        609829        607103        604121        601238        598630        597395        601336
  4.13031e-05        101000        101000        609790        607064        604086        601206        598600        597365        601308
  4.13127e-05        101000        101000        609752        607026        604052        601175        598572        597337        601280
  4.13222e-05        101000        101000        609714        606988        604018        601144        598543        597309        601253
  4.13316e-05        101000        101000        609677        606951        603984        601114        598515        597281        601226
   4.1341e-05        101000        101000        609640        606914        603950        601083        598488        597253        601200
  4.13503e-05        101000        101000        609604        606877        603917        601053        598460        597225        601173
  4.13593e-05        101000        101000        609568        606842        603885        601024        598434        597199        601147
  4.13672e-05        101000        101000        609538        606811        603856        600999        598410        597176        601125
  4.13754e-05        101000        101000        609506        606779        603827        600972        598387        597152        601102
  4.13831e-05        101000        101000        609476        606749        603800        600948        598364        597130        601080
   4.1391e-05        101000        101000        609445        606719        603772        600922        598341        597107        601057
  4.13989e-05        101000        101000        609415        606688        603743        600897        598318        597084        601035
  4.14069e-05        101000        101000        609384        606657        603715        600871        598295        597061        601012
  4.14149e-05        101000        101000        609353        606626        603686        600845        598272        597037        600989
  4.14232e-05        101000        101000        609322        606594        603657        600818        598248        597013        600965
  4.14314e-05        101000        101000        609290        606562        603628        600792        598223        596989        600942
  4.14398e-05        101000        101000        609257        606530        603598        600765        598199        596964        600918
  4.14481e-05        101000        101000        609224        606498        603568        600738        598174        596939        600894
  4.14565e-05        101000        101000        609191        606466        603539        600712        598150        596914        600870
  4.14647e-05        101000        101000        609158        606435        603510        600685        598125        596890        600846
  4.14728e-05        101000        101000        609125        606404        603482        600659        598102        596866        600823
  4.14808e-05        101000        101000        609093        606373        603454        600634        598078        596842        600800
  4.14887e-05        101000        101000        609061        606343        603426        600609        598055        596819        600778
   4.1496e-05        101000        101000        609031        606316        603401        600585        598033        596797        600757
  4.15031e-05        101000        101000        609002        606289        603376        600562        598012        596777        600736
  4.15103e-05        101000        101000        608972        606261        603351        600540        597991        596756        600716
  4.15175e-05        101000        101000        608943        606234        603327        600517        597970        596734        600695
  4.15247e-05        101000        101000        608913        606206        603302        600494        597949        596713        600674
  4.15319e-05        101000        101000        608883        606179        603277        600471        597927        596692        600654
  4.15391e-05        101000        101000        608853        606152        603253        600448        597906        596671        600633
  4.15462e-05        101000        101000        608823        606125        603229        600426        597885        596650        600613
  4.15533e-05        101000        101000        608793        606098        603205        600404        597864        596629        600592
  4.15603e-05        101000        101000        608763        606071        603181        600382        597843        596608        600572
  4.15668e-05        101000        101000        608735        606047        603159        600361        597824        596589        600553
  4.15737e-05        101000        101000        608706        606021        603136        600340        597803        596568        600533
  4.15804e-05        101000        101000        608677        605995        603114        600319        597783        596549        600514
  4.15872e-05        101000        101000        608648        605969        603091        600298        597763        596528        600494
   4.1594e-05        101000        101000        608620        605944        603069        600277        597742        596508        600475
  4.16009e-05        101000        101000        608591        605918        603046        600256        597722        596488        600455
  4.16078e-05        101000        101000        608563        605892        603024        600234        597701        596467        600435
  4.16146e-05        101000        101000        608534        605866        603001        600213        597680        596447        600415
  4.16212e-05        101000        101000        608507        605842        602980        600193        597661        596427        600397
  4.16281e-05        101000        101000        608478        605816        602957        600172        597640        596406        600377
  4.16346e-05        101000        101000        608451        605792        602936        600152        597620        596387        600358
  4.16415e-05        101000        101000        608422        605766        602914        600131        597599        596366        600338
  4.16482e-05        101000        101000        608394        605740        602892        600110        597579        596346        600318
  4.16551e-05        101000        101000        608365        605715        602870        600089        597558        596325        600299
  4.16619e-05        101000        101000        608337        605690        602849        600069        597537        596305        600279
  4.16688e-05        101000        101000        608308        605664        602827        600048        597516        596284        600259
  4.16757e-05        101000        101000        608279        605638        602805        600027        597495        596263        600239
  4.16828e-05        101000        101000        608249        605612        602783        600006        597474        596241        600219
  4.16898e-05        101000        101000        608219        605586        602760        599984        597452        596220        600198
   4.1697e-05        101000        101000        608189        605559        602738        599963        597430        596198        600177
  4.17041e-05        101000        101000        608159        605533        602716        599942        597408        596176        600157
  4.17113e-05        101000        101000        608128        605506        602693        599920        597386        596154        600136
  4.17183e-05        101000        101000        608097        605480        602671        599899        597365        596133        600116
  4.17255e-05        101000        101000        608066        605454        602649        599877        597342        596111        600095
  4.17328e-05        101000        101000        608035        605427        602626        599856        597320        596088        600074
  4.17402e-05        101000        101000        608004        605400        602603        599833        597297        596065        600052
  4.17474e-05        101000        101000        607974        605373        602581        599812        597275        596043        600031
  4.17548e-05        101000        101000        607944        605346        602558        599790        597252        596020        600010
  4.17623e-05        101000        101000        607914        605318        602535        599768        597229        595997        599988
  4.17697e-05        101000        101000        607885        605291        602513        599745        597206        595974        599967
  4.17771e-05        101000        101000        607857        605264        602490        599723        597183        595951        599945
  4.17846e-05        101000        101000        607828        605236        602468        599701        597160        595928        599923
  4.17917e-05        101000        101000        607801        605210        602447        599680        597138        595906        599903
  4.17987e-05        101000        101000        607776        605184        602426        599660        597117        595885        599882
  4.18059e-05        101000        101000        607750        605158        602405        599638        597095        595863        599862
  4.18131e-05        101000        101000        607724        605131        602384        599617        597072        595840        599841
  4.18205e-05        101000        101000        607698        605104        602363        599595        597049        595817        599819
   4.1828e-05        101000        101000        607673        605077        602341        599573        597026        595794        599797
  4.18355e-05        101000        101000        607647        605049        602320        599551        597003        595771        599776
   4.1843e-05        101000        101000        607623        605021        602299        599529        596980        595747        599754
  4.18508e-05        101000        101000        607597        604992        602277        599506        596955        595722        599731
  4.18587e-05        101000        101000        607573        604962        602255        599483        596931        595698        599708
  4.18665e-05        101000        101000        607548        604933        602233        599460        596906        595673        599686
  4.18739e-05        101000        101000        607526        604905        602212        599438        596883        595650        599664
  4.18818e-05        101000        101000        607503        604876        602190        599415        596859        595625        599641
  4.18892e-05        101000        101000        607481        604849        602170        599393        596836        595602        599620
  4.18971e-05        101000        101000        607458        604819        602148        599370        596811        595577        599597
   4.1905e-05        101000        101000        607434        604790        602126        599347        596787        595552        599574
  4.19129e-05        101000        101000        607410        604761        602105        599323        596762        595527        599551
  4.19202e-05        101000        101000        607388        604734        602085        599302        596740        595505        599530
  4.19275e-05        101000        101000        607366        604707        602065        599281        596717        595482        599509
  4.19347e-05        101000        101000        607343        604680        602045        599260        596695        595460        599488
   4.1942e-05        101000        101000        607321        604653        602025        599239        596672        595437        599467
  4.19492e-05        101000        101000        607299        604627        602005        599217        596650        595415        599446
  4.19565e-05        101000        101000        607276        604600        601985        599196        596628        595392        599424
  4.19637e-05        101000        101000        607254        604573        601965        599175        596605        595369        599403
   4.1971e-05        101000        101000        607231        604547        601945        599154        596583        595347        599382
  4.19782e-05        101000        101000        607209        604520        601925        599133        596560        595324        599361
  4.19855e-05        101000        101000        607186        604493        601906        599111        596538        595301        599340
  4.19927e-05        101000        101000        607163        604467        601886        599090        596516        595279        599319
      4.2e-05        101000        101000        607140        604440        601866        599069        596493        595256        599298
  4.20072e-05        101000        101000        607117        604414        601846        599048        596471        595233        599277
  4.20139e-05        101000        101000        607095        604389        601828        599028        596450        595212        599257
  4.20211e-05        101000        101000        607072        604363        601808        599007        596428        595190        599236
  4.20278e-05        101000        101000        607051        604338        601790        598988        596408        595169        599216
  4.20349e-05        101000        101000        607027        604312        601771        598967        596385        595147        599195
  4.20417e-05        101000        101001        607005        604287        601752        598947        596365        595126        599176