# Probe 0 (0.2505 1e-06 0)
# Probe 1 (0.2375 1e-06 0)
# Probe 2 (0.2302 1e-06 0)
# Probe 3 (0.2295 1e-06 0)
# Probe 4 (0.2285 1e-06 0)
# Probe 5 (0.2275 1e-06 0)
# Probe 6 (0.2265 1e-06 0)
# Probe 7 (0.2255 1e-06 0)
# Probe 8 (0.2248 1e-06 0)
#       Probe             0             1             2             3             4             5             6             7             8
#        Time
  3.00012e-05        101000        101000        101000        101000        101000        101000        101000        101000        101053
  3.00026e-05        101000        101000        101000        101000        101000        101000        101000        101000        101053
  3.00044e-05        101000        101000        101000        101000        101000        101000        101000        101000        101053
  3.00064e-05        101000        101000        101000        101000        101000        101000        101000        101000        101053
  3.00089e-05        101000        101000        101000        101000        101000        101000        101000        101000        101054
  3.00119e-05        101000        101000        101000        101000        101000        101000        101000        101000        101054
  3.00155e-05        101000        101000        101000        101000        101000        101000        101000        101000        101054
  3.00198e-05        101000        101000        101000        101000        101000        101000        101000        101000        101054
  3.00249e-05        101000        101000        101000        101000        101000        101000        101000        101000        101055
  3.00307e-05        101000        101000        101000        101000        101000        101000        101000        101000        101055
  3.00374e-05        101000        101000        101000        101000        101000        101000        101000        101000        101056
  3.00448e-05        101000        101000        101000        101000        101000        101000        101000        101000        101057
  3.00527e-05        101000        101000        101000        101000        101000        101000        101000        101000        101057
  3.00606e-05        101000        101000        101000        101000        101000        101000        101000        101000        101058
  3.00685e-05        101000        101000        101000        101000        101000        101000        101000        101000        101059
  3.00764e-05        101000        101000        101000        101000        101000        101000        101000        101000        101060
  3.00842e-05        101000        101000        101000        101000        101000        101000        101000        101000        101060
  3.00921e-05        101000        101000        101000        101000        101000        101000        101000        101000        101061
     3.01e-05        101000        101000        101000        101000        101000        101000        101000        101000        101062
  3.01079e-05        101000        101000        101000        101000        101000        101000        101000        101000        101063
  3.01158e-05        101000        101000        101000        101000        101000        101000        101000        101000        101064
  3.01237e-05        101000        101000        101000        101000        101000        101000        101000        101000        101065
  3.01315e-05        101000        101000        101000        101000        101000        101000        101000        101000        101066
  3.01394e-05        101000        101000        101000        101000        101000        101000        101000        101000        101067
  3.01473e-05        101000        101000        101000        101000        101000        101000        101000        101000        101068
  3.01552e-05        101000        101000        101000        101000        101000        101000        101000        101000        101070
  3.01631e-05        101000        101000        101000        101000        101000        101000        101000        101000        101071
   3.0171e-05        101000        101000        101000        101000        101000        101000        101000        101000        101072
  3.01788e-05        101000        101000        101000        101000        101000        101000        101000        101000        101073
  3.01867e-05        101000        101000        101000        101000        101000        101000        101000        101000        101075
  3.01946e-05        101000        101000        101000        101000        101000        101000        101000        101000        101076
  3.02025e-05        101000        101000        101000        101000        101000        101000        101000        101000        101078
  3.02104e-05        101000        101000        101000        101000        101000        101000        101000        101000        101079
  3.02183e-05        101000        101000        101000        101000        101000        101000        101000        101000        101080
  3.02261e-05        101000        101000        101000        101000        101000        101000        101000        101000        101082
   3.0234e-05        101000        101000        101000        101000        101000        101000        101000        101000        101084
  3.02419e-05        101000        101000        101000        101000        101000        101000        101000        101000        101085
  3.02498e-05        101000        101000        101000        101000        101000        101000        101000        101000        101087
  3.02577e-05        101000        101000        101000        101000        101000        101000        101000        101000        101089
  3.02656e-05        101000        101000        101000        101000        101000        101000        101000        101000        101090
  3.02734e-05        101000        101000        101000        101000        101000        101000        101000        101000        101092
  3.02813e-05        101000        101000        101000        101000        101000        101000        101000        101000        101094
  3.02892e-05        101000        101000        101000        101000        101000        101000        101000        101000        101096
  3.02971e-05        101000        101000        101000        101000        101000        101000        101000        101000        101098
   3.0305e-05        101000        101000        101000        101000        101000        101000        101000        101000        101100
  3.03129e-05        101000        101000        101000        101000        101000        101000        101000        101000        101102
  3.03208e-05        101000        101000        101000        101000        101000        101000        101000        101000        101104
  3.03286e-05        101000        101000        101000        101000        101000        101000        101000        101000        101107
  3.03365e-05        101000        101000        101000        101000        101000        101000        101000        101000        101109
  3.03444e-05        101000        101000        101000        101000        101000        101000        101000        101000        101111
  3.03523e-05        101000        101000        101000        101000        101000        101000        101000        101001        101114
  3.03602e-05        101000        101000        101000        101000        101000        101000        101000        101001        101116
  3.03681e-05        101000        101000        101000        101000        101000        101000        101000        101001        101118
  3.03759e-05        101000        101000        101000        101000        101000        101000        101000        101001        101121
  3.03838e-05        101000        101000        101000        101000        101000        101000        101000        101001        101124
  3.03917e-05        101000        101000        101000        101000        101000        101000        101000        101001        101126
  3.03996e-05        101000        101000        101000        101000        101000        101000        101000        101001        101129
  3.04075e-05        101000        101000        101000        101000        101000        101000        101000        101001        101132
  3.04154e-05        101000        101000        101000        101000        101000        101000        101000        101001        101135
  3.04232e-05        101000        101000        101000        101000        101000        101000        101000        101001        101138
  3.04311e-05        101000        101000        101000        101000        101000        101000        101000        101001        101141
   3.0439e-05        101000        101000        101000        101000        101000        101000        101000        101001        101144
  3.04469e-05        101000        101000        101000        101000        101000        101000        101000        101001        101147
  3.04548e-05        101000        101000        101000        101000        101000        101000        101000        101001        101151
  3.04627e-05        101000        101000        101000        101000        101000        101000        101000        101001        101154
  3.04705e-05        101000        101000        101000        101000        101000        101000        101000        101001        101158
  3.04784e-05        101000        101000        101000        101000        101000        101000        101000        101001        101161
  3.04863e-05        101000        101000        101000        101000        101000        101000        101000        101001        101165
  3.04942e-05        101000        101000        101000        101000        101000        101000        101000        101001        101169
  3.05021e-05        101000        101000        101000        101000        101000        101000        101000        101001        101172
    3.051e-05        101000        101000        101000        101000        101000        101000        101000        101001        101176
  3.05178e-05        101000        101000        101000        101000        101000        101000        101000        101001        101180
  3.05257e-05        101000        101000        101000        101000        101000        101000        101000        101001        101185
  3.05336e-05        101000        101000        101000        101000        101000        101000        101000        101001        101189
  3.05415e-05        101000        101000        101000        101000        101000        101000        101000        101001        101193
  3.05494e-05        101000        101000        101000        101000        101000        101000        101000        101001        101198
  3.05573e-05        101000        101000        101000        101000        101000        101000        101000        101001        101202
  3.05651e-05        101000        101000        101000        101000        101000        101000        101000        101001        101207
   3.0573e-05        101000        101000        101000        101000        101000        101000        101000        101001        101212
  3.05809e-05        101000        101000        101000        101000        101000        101000        101000        101001        101216
  3.05888e-05        101000        101000        101000        101000        101000        101000        101000        101001        101222
  3.05967e-05        101000        101000        101000        101000        101000        101000        101000        101001        101227
  3.06046e-05        101000        101000        101000        101000        101000        101000        101000        101002        101232
  3.06125e-05        101000        101000        101000        101000        101000        101000        101000        101002        101237
  3.06203e-05        101000        101000        101000        101000        101000        101000        101000        101002        101243
  3.06282e-05        101000        101000        101000        101000        101000        101000        101000        101002        101249
  3.06361e-05        101000        101000        101000        101000        101000        101000        101000        101002        101254
   3.0644e-05        101000        101000        101000        101000        101000        101000        101000        101002        101260
  3.06519e-05        101000        101000        101000        101000        101000        101000        101000        101002        101267
  3.06598e-05        101000        101000        101000        101000        101000        101000        101000        101002        101273
  3.06676e-05        101000        101000        101000        101000        101000        101000        101000        101002        101279
  3.06755e-05        101000        101000        101000        101000        101000        101000        101000        101002        101286
  3.06834e-05        101000        101000        101000        101000        101000        101000        101000        101002        101293
  3.06913e-05        101000        101000        101000        101000        101000        101000        101000        101002        101300
  3.06992e-05        101000        101000        101000        101000        101000        101000        101000        101002        101307
  3.07071e-05        101000        101000        101000        101000        101000        101000        101000        101002        101314
  3.07149e-05        101000        101000        101000        101000        101000        101000        101000        101002        101322
  3.07228e-05        101000        101000        101000        101000        101000        101000        101000        101002        101329
  3.07307e-05        101000        101000        101000        101000        101000        101000        101000        101002        101337
  3.07386e-05        101000        101000        101000        101000        101000        101000        101000        101002        101345
  3.07465e-05        101000        101000        101000        101000        101000        101000        101000        101003        101354
  3.07544e-05        101000        101000        101000        101000        101000        101000        101000        101003        101362
  3.07622e-05        101000        101000        101000        101000        101000        101000        101000        101003        101371
  3.07701e-05        101000        101000        101000        101000        101000        101000        101000        101003        101380
   3.0778e-05        101000        101000        101000        101000        101000        101000        101000        101003        101390
  3.07859e-05        101000        101000        101000        101000        101000        101000        101000        101003        101399
  3.07938e-05        101000        101000        101000        101000        101000        101000        101000        101003        101409
  3.08017e-05        101000        101000        101000        101000        101000        101000        101000        101003        101419
  3.08095e-05        101000        101000        101000        101000        101000        101000        101000        101003        101429
  3.08174e-05        101000        101000        101000        101000        101000        101000        101000        101003        101440
  3.08253e-05        101000        101000        101000        101000        101000        101000        101000        101003        101451
  3.08332e-05        101000        101000        101000        101000        101000        101000        101000        101003        101462
  3.08411e-05        101000        101000        101000        101000        101000        101000        101000        101004        101473
   3.0849e-05        101000        101000        101000        101000        101000        101000        101000        101004        101485
  3.08568e-05        101000        101000        101000        101000        101000        101000        101000        101004        101497
  3.08647e-05        101000        101000        101000        101000        101000        101000        101000        101004        101510
  3.08726e-05        101000        101000        101000        101000        101000        101000        101000        101004        101522
  3.08805e-05        101000        101000        101000        101000        101000        101000        101000        101004        101535
  3.08884e-05        101000        101000        101000        101000        101000        101000        101000        101004        101549
  3.08963e-05        101000        101000        101000        101000        101000        101000        101000        101004        101563
  3.09042e-05        101000        101000        101000        101000        101000        101000        101000        101004        101577
   3.0912e-05        101000        101000        101000        101000        101000        101000        101000        101004        101592
  3.09199e-05        101000        101000        101000        101000        101000        101000        101000        101005        101607
  3.09278e-05        101000        101000        101000        101000        101000        101000        101000        101005        101623
  3.09357e-05        101000        101000        101000        101000        101000        101000        101000        101005        101639
  3.09436e-05        101000        101000        101000        101000        101000        101000        101000        101005        101655
  3.09515e-05        101000        101000        101000        101000        101000        101000        101000        101005        101672
  3.09593e-05        101000        101000        101000        101000        101000        101000        101000        101005        101690
  3.09672e-05        101000        101000        101000        101000        101000        101000        101000        101005        101708
  3.09751e-05        101000        101000        101000        101000        101000        101000        101000        101006        101726
   3.0983e-05        101000        101000        101000        101000        101000        101000        101000        101006        101746
  3.09909e-05        101000        101000        101000        101000        101000        101000        101000        101006        101765
  3.09988e-05        101000        101000        101000        101000        101000        101000        101000        101006        101786
  3.10066e-05        101000        101000        101000        101000        101000        101000        101000        101006        101807
  3.10145e-05        101000        101000        101000        101000        101000        101000        101000        101006        101829
  3.10224e-05        101000        101000        101000        101000        101000        101000        101000        101006        101851
  3.10303e-05        101000        101000        101000        101000        101000        101000        101000        101007        101875
  3.10382e-05        101000        101000        101000        101000        101000        101000        101000        101007        101899
  3.10461e-05        101000        101000        101000        101000        101000        101000        101000        101007        101924
  3.10539e-05        101000        101000        101000        101000        101000        101000        101000        101007        101949
  3.10618e-05        101000        101000        101000        101000        101000        101000        101000        101007        101976
  3.10697e-05        101000        101000        101000        101000        101000        101000        101000        101007        102004
  3.10776e-05        101000        101000        101000        101000        101000        101000        101000        101008        102033
  3.10855e-05        101000        101000        101000        101000        101000        101000        101000        101008        102062
  3.10934e-05        101000        101000        101000        101000        101000        101000        101000        101008        102093
  3.11012e-05        101000        101000        101000        101000        101000        101000        101000        101008        102125
  3.11091e-05        101000        101000        101000        101000        101000        101000        101000        101008        102158
   3.1117e-05        101000        101000        101000        101000        101000        101000        101000        101009        102192
  3.11249e-05        101000        101000        101000        101000        101000        101000        101000        101009        102227
  3.11328e-05        101000        101000        101000        101000        101000        101000        101000        101009        102263
  3.11407e-05        101000        101000        101000        101000        101000        101000        101000        101009        102301
  3.11486e-05        101000        101000        101000        101000        101000        101000        101000        101010        102340
  3.11564e-05        101000        101000        101000        101000        101000        101000        101000        101010        102380
  3.11643e-05        101000        101000        101000        101000        101000        101000        101000        101010        102421
  3.11722e-05        101000        101000        101000        101000        101000        101000        101000        101010        102464
  3.11801e-05        101000        101000        101000        101000        101000        101000        101000        101011        102509
   3.1188e-05        101000        101000        101000        101000        101000        101000        101000        101011        102555
  3.11959e-05        101000        101000        101000        101000        101000        101000        101000        101011        102603
  3.12037e-05        101000        101000        101000        101000        101000        101000        101000        101011        102652
  3.12116e-05        101000        101000        101000        101000        101000        101000        101000        101012        102704
  3.12195e-05        101000        101000        101000        101000        101000        101000        101000        101012        102757
  3.12274e-05        101000        101000        101000        101000        101000        101000        101000        101012        102813
  3.12353e-05        101000        101000        101000        101000        101000        101000        101000        101013        102871
  3.12432e-05        101000        101000        101000        101000        101000        101000        101000        101013        102931
   3.1251e-05        101000        101000        101000        101000        101000        101000        101000        101013        102994
  3.12589e-05        101000        101000        101000        101000        101000        101000        101000        101013        103059
  3.12668e-05        101000        101000        101000        101000        101000        101000        101000        101014        103127
  3.12747e-05        101000        101000        101000        101000        101000        101000        101000        101014        103198
  3.12826e-05        101000        101000        101000        101000        101000        101000        101000        101014        103272
  3.12905e-05        101000        101000        101000        101000        101000        101000        101000        101015        103349
  3.12983e-05        101000        101000        101000        101000        101000        101000        101000        101015        103429
  3.13062e-05        101000        101000        101000        101000        101000        101000        101000        101016        103514
  3.13141e-05        101000        101000        101000        101000        101000        101000        101000        101016        103602
   3.1322e-05        101000        101000        101000        101000        101000        101000        101000        101016        103694
  3.13299e-05        101000        101000        101000        101000        101000        101000        101000        101017        103790
  3.13378e-05        101000        101000        101000        101000        101000        101000        101000        101017        103892
  3.13456e-05        101000        101000        101000        101000        101000        101000        101000        101018        103997
  3.13535e-05        101000        101000        101000        101000        101000        101000        101000        101018        104109
  3.13614e-05        101000        101000        101000        101000        101000        101000        101000        101018        104225
  3.13693e-05        101000        101000        101000        101000        101000        101000        101000        101019        104347
  3.13772e-05        101000        101000        101000        101000        101000        101000        101000        101019        104476
  3.13851e-05        101000        101000        101000        101000        101000        101000        101000        101020        104611
  3.13929e-05        101000        101000        101000        101000        101000        101000        101000        101020        104753
  3.14008e-05        101000        101000        101000        101000        101000        101000        101000        101021        104902
  3.14087e-05        101000        101000        101000        101000        101000        101000        101000        101021        105059
  3.14166e-05        101000        101000        101000        101000        101000        101000        101000        101022        105225
  3.14245e-05        101000        101000        101000        101000        101000        101000        101000        101022        105400
  3.14324e-05        101000        101000        101000        101000        101000        101000        101000        101023        105584
  3.14403e-05        101000        101000        101000        101000        101000        101000        101000        101024        105779
  3.14481e-05        101000        101000        101000        101000        101000        101000        101000        101024        105985
   3.1456e-05        101000        101000        101000        101000        101000        101000        101000        101025        106203
  3.14639e-05        101000        101000        101000        101000        101000        101000        101000        101025        106433
  3.14718e-05        101000        101000        101000        101000        101000        101000        101000        101026        106677
  3.14797e-05        101000        101000        101000        101000        101000        101000        101000        101027        106934
  3.14876e-05        101000        101000        101000        101000        101000        101000        101000        101027        107207
  3.14954e-05        101000        101000        101000        101000        101000        101000        101000        101028        107495
  3.15033e-05        101000        101000        101000        101000        101000        101000        101000        101029        107801
  3.15112e-05        101000        101000        101000        101000        101000        101000        101000        101029        108126
  3.15191e-05        101000        101000        101000        101000        101000        101000        101000        101030        108470
   3.1527e-05        101000        101000        101000        101000        101000        101000        101000        101031        108836
  3.15349e-05        101000        101000        101000        101000        101000        101000        101000        101032        109225
  3.15427e-05        101000        101000        101000        101000        101000        101000        101000        101032        109638
  3.15506e-05        101000        101000        101000        101000        101000        101000        101000        101033        110077
  3.15585e-05        101000        101000        101000        101000        101000        101000        101000        101034        110544
  3.15664e-05        101000        101000        101000        101000        101000        101000        101000        101035        111041
  3.15743e-05        101000        101000        101000        101000        101000        101000        101000        101036        111569
  3.15822e-05        101000        101000        101000        101000        101000        101000        101000        101037        112131
    3.159e-05        101000        101000        101000        101000        101000        101000        101000        101038        112727
  3.15979e-05        101000        101000        101000        101000        101000        101000        101000        101039        113361
  3.16058e-05        101000        101000        101000        101000        101000        101000        101000        101040        114033
  3.16137e-05        101000        101000        101000        101000        101000        101000        101000        101041        114747