# Probe 0 (0.102 1e-06 0)
# Probe 1 (0.089 1e-06 0)
# Probe 2 (0.079 1e-06 0)
#       Probe             0             1             2
#        Time
  1.20005e-09        101000        101000        101000
  2.64017e-09        101000        101000        101000
  4.36833e-09        101000        101000        101000
  6.44211e-09        101000        101000        101000
  8.93055e-09        101000        101000        101000
  1.19165e-08        101000        101000        101000
  1.55003e-08        101000        101000        101000
  1.98003e-08        101000        101000        101000
  2.49607e-08        101000        101000        101000
  3.11448e-08        101000        101000        101000
  3.83634e-08        101000        101000        101000
  4.66372e-08        101000        101000        101000
  5.60007e-08        101000        101000        101000
  6.64901e-08        101000        101000        101000
  7.81219e-08        101000        101000        101000
   9.0163e-08        101000        101000        101000
  1.02103e-07        101000        101000        101000
  1.13519e-07        101000        101000        101000
  1.24602e-07        101000        101000        101000
  1.35348e-07        101000        101000        101000
  1.45809e-07        101000        101000        101000
  1.56063e-07        101000        101000        101000
  1.66243e-07        101000        101000        101000
  1.76391e-07        101000        101000        101000
  1.86529e-07        101000        101000        101000
  1.96678e-07        101000        101000        101000
  2.06858e-07        101000        101000        101000
  2.17038e-07        101000        101000        101000
  2.27071e-07        101000        101000        101000
  2.36973e-07        101000        101000        101000
  2.46765e-07        101000        101000        101000
   2.5646e-07        101000        101000        101000
  2.66079e-07        101000        101000        101000
  2.75631e-07        101000        101000        101000
  2.85119e-07        101000        101000        101000
  2.94487e-07        101000        101000        101000
  3.03686e-07        101000        101000        101000
  3.12757e-07        101000        101000        101000
  3.21727e-07        101000        101000        101000
  3.30606e-07        101000        101000        101000
  3.39404e-07        101000        101000        101000
  3.48139e-07        101000        101000        101000
  3.56818e-07        101000        101000        101000
  3.65452e-07        101000        101000        101000
  3.74023e-07        101000        101000        101000
  3.82512e-07        101000        101000        101000
  3.90897e-07        101000        101000        101000
  3.99188e-07        101000        101000        101000
  4.07393e-07        101000        101000        101000
  4.15516e-07        101000        101000        101000
  4.23563e-07        101000        101000        101000
  4.31544e-07        101000        101000        101000
  4.39464e-07        101000        101000        101000
  4.47333e-07        101000        101000        101000
  4.55144e-07        101000        101000        101000
   4.6291e-07        101000        101000        101000
  4.70633e-07        101000        101000        101000
  4.78293e-07        101000        101000        101000
  4.85892e-07        101000        101000        101000
  4.93443e-07        101000        101000        101000
  5.00946e-07        101000        101000        101000
  5.08408e-07        101000        101000        101000
  5.15829e-07        101000        101000        101000
  5.23221e-07        101000        101000        101000
  5.30585e-07        101000        101000        101000
  5.37926e-07        101000        101000        101000
  5.45244e-07        101000        101000        101000
  5.52544e-07        101000        101000        101000
  5.59829e-07        101000        101000        101000
  5.67101e-07        101000        101000        101000
  5.74363e-07        101000        101000        101000
  5.81614e-07        101000        101000        101000
  5.88858e-07        101000        101000        101000
  5.96098e-07        101000        101000        101000
   6.0332e-07        101000        101000        101000
  6.10504e-07        101000        101000        101000
  6.17656e-07        101000        101000        101000
  6.24769e-07        101000        101000        101000
   6.3185e-07        101000        101000        101000
  6.38883e-07        101000        101000        101000
  6.45869e-07        101000        101000        101000
  6.52813e-07        101000        101000        101000
  6.59722e-07        101000        101000        101000
   6.6659e-07        101000        101000        101000
  6.73422e-07        101000        101000        101000
  6.80225e-07        101000        101000        101000
  6.86993e-07        101000        101000        101000
  6.93732e-07        101000        101000        101000
  7.00447e-07        101000        101000        101000
  7.07132e-07        101000        101000        101000
  7.13794e-07        101000        101000        101000
  7.20431e-07        101000        101000        101000
   7.2705e-07        101000        101000        101000
   7.3365e-07        101000        101000        101000
  7.40231e-07        101000        101000        101000
  7.46794e-07        101000        101000        101000
  7.53343e-07        101000        101000        101000
  7.59877e-07        101000        101000        101000
  7.66398e-07        101000        101000        101000
  7.72905e-07        101000        101000        101000
  7.79403e-07        101000        101000        101000
  7.85892e-07        101000        101000        101000
  7.92372e-07        101000        101000        101000
  7.98842e-07        101000        101000        101000
  8.05304e-07        101000        101000        101000
  8.11761e-07        101000        101000        101000
  8.18213e-07        101000        101000        101000
  8.24661e-07        101000        101000        101000
  8.31104e-07        101000        101000        101000
  8.37543e-07        101000        101000        101000
  8.43978e-07        101000        101000        101000
  8.50412e-07        101000        101000        101000
  8.56846e-07        101000        101000        101000
   8.6328e-07        101000        101000        101000
  8.69715e-07        101000        101000        101000
  8.76154e-07        101000        101000        101000
  8.82592e-07        101000        101000        101000
  8.89036e-07        101000        101000        101000
  8.95484e-07        101000        101000        101000
  9.01932e-07        101000        101000        101000
  9.08352e-07        101000        101000        101000
  9.14751e-07        101000        101000        101000
  9.21126e-07        101000        101000        101000
  9.27479e-07        101000        101000        101000
  9.33811e-07        101000        101000        101000
  9.40124e-07        101000        101000        101000
   9.4642e-07        101000        101000        101000
  9.52699e-07        101000        101000        101000
  9.58964e-07        101000        101000        101000
  9.65212e-07        101000        101000        101000
  9.71447e-07        101000        101000        101000
   9.7767e-07        101000        101000        101000
  9.83883e-07        101000        101000        101000
  9.90084e-07        101000        101000        101000
  9.96277e-07        101000        101000        101000
  1.00246e-06        101000        101000        101000
  1.00864e-06        101000        101000        101000
   1.0148e-06        101000        101000        101000
  1.02097e-06        101000        101000        101000
  1.02712e-06        101000        101000        101000
  1.03327e-06        101000        101000        101000
  1.03942e-06        101000        101000        101000
  1.04555e-06        101000        101000        101000
  1.05169e-06        101000        101000        101000
  1.05782e-06        101000        101000        101000
  1.06395e-06        101000        101000        101000
  1.07007e-06        101000        101000        101000
  1.07619e-06        101000        101000        101000
  1.08231e-06        101000        101000        101000
  1.08843e-06        101000        101000        101000
  1.09455e-06        101000        101000        101000
  1.10066e-06        101000        101000        101000
  1.10677e-06        101000        101000        101000
  1.11288e-06        101000        101000        101000
    1.119e-06        101000        101000        101000
  1.12511e-06        101000        101000        101000
  1.13122e-06        101000        101000        101000
  1.13732e-06        101000        101000        101000
  1.14343e-06        101000        101000        101000
  1.14954e-06        101000        101000        101000
  1.15566e-06        101000        101000        101000
  1.16177e-06        101000        101000        101000
  1.16787e-06        101000        101000        101000
  1.17395e-06        101000        101000        101000
  1.18003e-06        101000        101000        101000
  1.18609e-06        101000        101000        101000
  1.19213e-06        101000        101000        101000
  1.19817e-06        101000        101000        101000
  1.20419e-06        101000        101000        101000
  1.21021e-06        101000        101000        101000
  1.21621e-06        101000        101000        101000
  1.22221e-06        101000        101000        101000
  1.22819e-06        101000        101000        101000
  1.23417e-06        101000        101000        101000
  1.24015e-06        101000        101000        101000
  1.24611e-06        101000        101000        101000
  1.25208e-06        101000        101000        101000
  1.25803e-06        101000        101000        101000
  1.26398e-06        101000        101000        101000
  1.26993e-06        101000        101000        101000
  1.27587e-06        101000        101000        101000
   1.2818e-06        101000        101000        101000
  1.28774e-06        101000        101000        101000
  1.29366e-06        101000        101000        101000
  1.29959e-06        101000        101000        101000
  1.30551e-06        101000        101000        101000
  1.31143e-06        101000        101000        101000
  1.31735e-06        101000        101000        101000
  1.32326e-06        101000        101000        101000
  1.32918e-06        101000        101000        101000
  1.33509e-06        101000        101000        101000
    1.341e-06        101000        101000        101000
  1.34691e-06        101000        101000        101000
  1.35282e-06        101000        101000        101000
  1.35873e-06        101000        101000        101000
  1.36463e-06        101000        101000        101000
  1.37053e-06        101000        101000        101000
  1.37642e-06        101000        101000        101000
  1.38231e-06        101000        101000        101000
   1.3882e-06        101000        101000        101000
  1.39409e-06        101000        101000        101000
  1.39998e-06        101000        101000        101000
  1.40586e-06        101000        101000        101000
  1.41175e-06        101000        101000        101000
  1.41764e-06        101000        101000        101000
  1.42351e-06        101000        101000        101000
  1.42938e-06        101000        101000        101000
  1.43523e-06        101000        101000        101000
  1.44108e-06        101000        101000        101000
  1.44693e-06        101000        101000        101000
  1.45276e-06        101000        101000        101000
   1.4586e-06        101000        101000        101000
  1.46442e-06        101000        101000        101000
  1.47023e-06        101000        101000        101000
  1.47603e-06        101000        101000        101000
  1.48183e-06        101000        101000        101000
  1.48762e-06        101000        101000        101000
  1.49341e-06        101000        101000        101000
  1.49919e-06        101000        101000        101000
  1.50496e-06        101000        101000        101000
  1.51073e-06        101000        101000        101000
  1.51649e-06        101000        101000        101000
  1.52224e-06        101000        101000        101000
  1.52799e-06        101000        101000        101000
  1.53373e-06        101000        101000        101000
  1.53946e-06        101000        101000        101000
  1.54519e-06        101000        101000        101000
  1.55092e-06        101000        101000        101000
  1.55665e-06        101000        101000        101000
  1.56237e-06        101000        101000        101000
   1.5681e-06        101000        101000        101000
  1.57381e-06        101000        101000        101000
  1.57951e-06        101000        101000        101000
  1.58519e-06        101000        101000        101000
  1.59085e-06        101000        101000        101000
   1.5965e-06        101000        101000        101000
  1.60213e-06        101000        101000        101000
  1.60775e-06        101000        101000        101000
  1.61336e-06        101000        101000        101000
  1.61893e-06        101000        101000        101000
  1.62449e-06        101000        101000        101000
  1.63002e-06        101000        101000        101000
  1.63553e-06        101000        101000        101000
  1.64103e-06        101000        101000        101000
  1.64651e-06        101000        101000        101000
  1.65198e-06        101000        101000        101000
  1.65745e-06        101000        101000        101000
  1.66293e-06        101000        101000        101000
  1.66841e-06        101000        101000        101000
  1.67389e-06        101000        101000        101000
  1.67937e-06        101000        101000        101000
  1.68485e-06        101000        101000        101000
  1.69034e-06        101000        101000        101000
  1.69582e-06        101000        101000        101000
  1.70131e-06        101000        101000        101000
   1.7068e-06        101000        101000        101000
  1.71229e-06        101000        101000        101000
  1.71779e-06        101000        101000        101000
  1.72329e-06        101000        101000        101000
  1.72879e-06        101000        101000        101000
   1.7343e-06        101000        101000        101000
  1.73981e-06        101000        101000        101000
  1.74532e-06        101000        101000        101000
  1.75083e-06        101000        101000        101000
  1.75635e-06        101000        101000        101000
  1.76187e-06        101000        101000        101000
   1.7674e-06        101000        101000        101000
  1.77293e-06        101000        101000        101000
  1.77847e-06        101000        101000        101000
  1.78401e-06        101000        101000        101000
  1.78955e-06        101000        101000        101000
   1.7951e-06        101000        101000        101000
  1.80066e-06        101000        101000        101000
  1.80621e-06        101000        101000        101000
  1.81176e-06        101000        101000        101000
  1.81731e-06        101000        101000        101000
  1.82286e-06        101000        101000        101000
  1.82841e-06        101000        101000        101000
  1.83397e-06        101000        101000        101000
  1.83952e-06        101000        101000        101000
  1.84507e-06        101000        101000        101000
  1.85062e-06        101000        101000        101000
  1.85617e-06        101000        101000        101000
  1.86173e-06        101000        101000        101000
  1.86728e-06        101000        101000        101000
  1.87284e-06        101000        101000        101000
  1.87839e-06        101000        101000        101000
  1.88395e-06        101000        101000        101000
  1.88951e-06        101000        101000        101000
  1.89506e-06        101000        101000        101000
   1.9006e-06        101000        101000        101000
  1.90614e-06        101000        101000        101000
  1.91167e-06        101000        101000        101000
  1.91719e-06        101000        101000        101000
  1.92271e-06        101000        101000        101000
  1.92822e-06        101000        101000        101000
  1.93374e-06        101000        101000        101000
  1.93925e-06        101000        101000        101000
  1.94475e-06        101000        101000        101000
  1.95026e-06        101000        101000        101000
  1.95576e-06        101000        101000        101000
  1.96126e-06        101000        101000        101000
  1.96676e-06        101000        101000        101000
  1.97227e-06        101000        101000        101000
  1.97777e-06        101000        101000        101000
  1.98329e-06        101000        101000        101000
  1.98881e-06        101000        101000        101000
  1.99433e-06        101000        101000        101000
  1.99985e-06        101000        101000        101000
  2.00538e-06        101000        101000        101000
  2.01091e-06        101000        101000        101000
  2.01645e-06        101000        101000        101000
  2.02199e-06        101000        101000        101000
  2.02753e-06        101000        101000        101000
  2.03309e-06        101000        101000        101000
  2.03864e-06        101000        101000        101000
   2.0442e-06        101000        101000        101000
  2.04976e-06        101000        101000        101000
  2.05532e-06        101000        101000        101000
  2.06088e-06        101000        101000        101000
  2.06643e-06        101000        101000        101000
  2.07198e-06        101000        101000        101000
  2.07751e-06        101000        101000        101000
  2.08304e-06        101000        101000        101000
  2.08857e-06        101000        101000        101000
  2.09408e-06        101000        101000        101000
  2.09958e-06        101000        101000        101000
  2.10507e-06        101000        101000        101000
  2.11055e-06        101000        101000        101000
  2.11602e-06        101000        101000        101000
   2.1215e-06        101000        101000        101000
  2.12696e-06        101000        101000        101000
  2.13243e-06        101000        101000        101000
  2.13789e-06        101000        101000        101000
  2.14335e-06        101000        101000        101000
  2.14881e-06        101000        101000        101000
  2.15427e-06        101000        101000        101000
  2.15974e-06        101000        101000        101000
  2.16521e-06        101000        101000        101000
  2.17069e-06        101000        101000        101000
  2.17617e-06        101000        101000        101000
  2.18166e-06        101000        101000        101000
  2.18715e-06        101000        101000        101000
  2.19265e-06        101000        101000        101000
  2.19815e-06        101000        101000        101000
  2.20366e-06        101000        101000        101000
  2.20917e-06        101000        101000        101000
  2.21468e-06        101000        101000        101000
   2.2202e-06        101000        101000        101000
  2.22572e-06        101000        101000        101000
  2.23124e-06        101000        101000        101000
  2.23677e-06        101000        101000        101000
  2.24231e-06        101000        101000        101000
  2.24784e-06        101000        101000        101000
  2.25339e-06        101000        101000        101000
  2.25893e-06        101000        101000        101000
  2.26448e-06        101000        101000        101000
  2.27002e-06        101000        101000        101000
  2.27555e-06        101000        101000        101000
  2.28109e-06        101000        101000        101000
  2.28663e-06        101000        101000        101000
  2.29215e-06        101000        101000        101000
  2.29768e-06        101000        101000        101000
   2.3032e-06        101000        101000        101000
  2.30871e-06        101000        101000        101000
  2.31422e-06        101000        101000        101000
  2.31973e-06        101000        101000        101000
  2.32522e-06        101000        101000        101000
  2.33072e-06        101000        101000        101000
   2.3362e-06        101000        101000        101000
  2.34169e-06        101000        101000        101000
  2.34716e-06        101000        101000        101000
  2.35264e-06        101000        101000        101000
  2.35811e-06        101000        101000        101000
  2.36358e-06        101000        101000        101000
  2.36904e-06        101000        101000        101000
  2.37451e-06        101000        101000        101000
  2.37998e-06        101000        101000        101000
  2.38546e-06        101000        101000        101000
  2.39093e-06        101000        101000        101000
  2.39641e-06        101000        101000        101000
  2.40189e-06        101000        101000        101000
  2.40737e-06        101000        101000        101000
  2.41285e-06        101000        101000        101000
  2.41834e-06        101000        101000        101000
  2.42384e-06        101000        101000        101000
  2.42933e-06        101000        101000        101000
  2.43484e-06        101000        101000        101000
  2.44034e-06        101000        101000        101000
  2.44585e-06        101000        101000        101000
  2.45137e-06        101000        101000        101000
  2.45688e-06        101000        101000        101000
  2.46241e-06        101000        101000        101000
  2.46793e-06        101000        101000        101000
  2.47347e-06        101000        101000        101000
    2.479e-06        101000        101000        101000
  2.48453e-06        101000        101000        101000
  2.49006e-06        101000        101000        101000
  2.49559e-06        101000        101000        101000
  2.50111e-06        101000        101000        101000
  2.50664e-06        101000        101000        101000
  2.51215e-06        101000        101000        101000
  2.51767e-06        101000        101000        101000
  2.52318e-06        101000        101000        101000
  2.52868e-06        101000        101000        101000
  2.53418e-06        101000        101000        101000
  2.53969e-06        101000        101000        101000
  2.54519e-06        101000        101000        101000
  2.55069e-06        101000        101000        101000
  2.55618e-06        101000        101000        101000
  2.56168e-06        101000        101000        101000
  2.56717e-06        101000        101000        101000
  2.57267e-06        101000        101000        101000
  2.57816e-06        101000        101000        101000
  2.58365e-06        101000        101000        101000
  2.58914e-06        101000        101000        101000
  2.59463e-06        101000        101000        101000
  2.60013e-06        101000        101000        101000
  2.60563e-06        101000        101000        101000
  2.61113e-06        101000        101000        101000
  2.61663e-06        101000        101000        101000
  2.62214e-06        101000        101000        101000
  2.62764e-06        101000        101000        101000
  2.63315e-06        101000        101000        101000
  2.63867e-06        101000        101000        101000
  2.64418e-06        101000        101000        101000
   2.6497e-06        101000        101000        101000
  2.65522e-06        101000        101000        101000
  2.66073e-06        101000        101000        101000
  2.66626e-06        101000        101000        101000
  2.67178e-06        101000        101000        101000
   2.6773e-06        101000        101000        101000
  2.68282e-06        101000        101000        101000
  2.68835e-06        101000        101000        101000
  2.69387e-06        101000        101000        101000
  2.69939e-06        101000        101000        101000
  2.70491e-06        101000        101000        101000
  2.71044e-06        101000        101000        101000
  2.71595e-06        101000        101000        101000
  2.72147e-06        101000        101000        101000
  2.72699e-06        101000        101000        101000
   2.7325e-06        101000        101000        101000
  2.73801e-06        101000        101000        101000
  2.74352e-06        101000        101000        101000
  2.74903e-06        101000        101000        101000
  2.75454e-06        101000        101000        101000
  2.76004e-06        101000        101000        101000
  2.76554e-06        101000        101000        101000
  2.77104e-06        101000        101000        101000
  2.77654e-06        101000        101000        101000
  2.78204e-06        101000        101000        101000
  2.78754e-06        101000        101000        101000
  2.79305e-06        101000        101000        101000
  2.79855e-06        101000        101000        101000
  2.80406e-06        101000        101000        101000
  2.80956e-06        101000        101000        101000
  2.81507e-06        101000        101000        101000
  2.82058e-06        101000        101000        101000
  2.82609e-06        101000        101000        101000
  2.83161e-06        101000        101000        101000
  2.83713e-06        101000        101000        101000
  2.84264e-06        101000        101000        101000
  2.84816e-06        101000        101000        101000
  2.85368e-06        101000        101000        101000
   2.8592e-06        101000        101000        101000
  2.86472e-06        101000        101000        101000
  2.87024e-06        101000        101000        101000
  2.87575e-06        101000        101000        101000
  2.88127e-06        101000        101000        101000
  2.88679e-06        101000        101000        101000
  2.89231e-06        101000        101000        101000
  2.89783e-06        101000        101000        101000
  2.90335e-06        101000        101000        101000
  2.90886e-06        101000        101000        101000
  2.91438e-06        101000        101000        101000
   2.9199e-06        101000        101000        101000
  2.92541e-06        101000        101000        101000
  2.93093e-06        101000        101000        101000
  2.93645e-06        101000        101000        101000
  2.94197e-06        101000        101000        101000
  2.94748e-06        101000        101000        101000
    2.953e-06        101000        101000        101000
  2.95851e-06        101000        101000        101000
  2.96402e-06        101000        101000        101000
  2.96953e-06        101000        101000        101000
  2.97504e-06        101000        101000        101000
  2.98055e-06        101000        101000        101000
  2.98606e-06        101000        101000        101000
  2.99157e-06        101000        101000        101000
  2.99708e-06        101000        101000        101000
  3.00259e-06        101000        101000        101000
   3.0081e-06        101000        101000        101000
  3.01361e-06        101000        101000        101000
  3.01912e-06        101000        101000        101000
  3.02464e-06        101000        101000        101000
  3.03015e-06        101000        101000        101000
  3.03567e-06        101000        101000        101000
  3.04118e-06        101000        101000        101000
  3.04669e-06        101000        101000        101000
   3.0522e-06        101000        101000        101000
  3.05771e-06        101000        101000        101000
  3.06322e-06        101000        101000        101000
  3.06872e-06        101000        101000        101000
  3.07423e-06        101000        101000        101000
  3.07974e-06        101000        101000        101000
  3.08525e-06        101000        101000        101000
  3.09076e-06        101000        101000        101000
  3.09627e-06        101000        101000        101000
  3.10178e-06        101000        101000        101000
  3.10728e-06        101000        101000        101000
   3.1128e-06        101000        101000        101000
  3.11831e-06        101000        101000        101000
  3.12383e-06        101000        101000        101000
  3.12935e-06        101000        101000        101000
  3.13486e-06        101000        101000        101000
  3.14038e-06        101000        101000        101000
   3.1459e-06        101000        101000        101000
  3.15142e-06        101000        101000        101000
  3.15694e-06        101000        101000        101000
  3.16247e-06        101000        101000        101000
  3.16799e-06        101000        101000        101000
  3.17351e-06        101000        101000        101000
  3.17904e-06        101000        101000        101000
  3.18455e-06        101000        101000        101000
  3.19007e-06        101000        101000        101000
  3.19559e-06        101000        101000        101000
  3.20111e-06        101000        101000        101000
  3.20663e-06        101000        101000        101000
  3.21216e-06        101000        101000        101000
  3.21768e-06        101000        101000        101000
   3.2232e-06        101000        101000        101000
  3.22873e-06        101000        101000        101000
  3.23425e-06        101000        101000        101000